version 2
run random-0-20160426-09:49:41-5572
attr configname random
attr datetime 20160426-09:49:41
attr experiment random
attr inifile omnetpp.ini
attr iterationvars ""
attr iterationvars2 $repetition=0
attr measurement ""
attr network exercise2
attr processid 5572
attr repetition 0
attr replication #0
attr resultdir results
attr runnumber 0
attr seedset 0

vector 0  exercise2.rx  interArrivalTime:vector  ETV
attr interpolationmode  none
attr source  arrival
attr title  "inter-arrival time, vector"
0	3	5.1	5.1
0	4	5.100031305476	3.1305476e-005
0	6	5.626182483588	0.526151178112
0	8	6.648603720206	1.022421236618
0	10	8.483204280509	1.834600560303
0	12	8.614273224903	0.131068944394
0	14	9.490109951318	0.875836726415
0	16	9.678288415317	0.188178463999
0	18	10.39374728232	0.715458867003
0	20	11.110932895875	0.717185613555
0	22	12.84970444656	1.738771550685
0	25	14.383712704818	1.534008258258
0	26	14.461378189941	0.077665485123
0	28	15.785239545068	1.323861355127
0	30	15.923527982821	0.138288437753
0	32	16.137374516435	0.213846533614
0	34	16.256175290165	0.11880077373
0	37	16.940772839183	0.684597549018
0	38	16.971565583887	0.030792744704
0	40	18.505228135207	1.53366255132
0	42	18.772597076611	0.267368941404
0	44	20.442540998489	1.669943921878
0	46	21.189631871531	0.747090873042
0	48	21.545538445991	0.35590657446
0	50	23.267284406803	1.721745960812
0	52	24.651951916886	1.384667510083
0	54	24.759667023945	0.107715107059
0	56	25.12752659461	0.367859570665
0	58	25.743202458692	0.615675864082
0	60	27.407199863604	1.663997404912
0	62	28.211962223741	0.804762360137
0	64	29.853245490715	1.641283266974
0	66	30.902037610213	1.048792119498
0	68	31.951849565179	1.049811954966
0	70	32.141707613555	0.189858048376
0	72	33.086035142932	0.944327529377
0	74	34.3989720396	1.312936896668
0	76	34.929526332013	0.530554292413
0	78	35.955168245994	1.025641913981
0	80	37.919317832255	1.964149586261
0	82	39.380672558782	1.461354726527
0	84	40.368828098538	0.988155539756
0	86	42.29902926346	1.930201164922
0	88	43.189670889507	0.890641626047
0	90	44.203094208987	1.01342331948
0	92	44.80916848009	0.606074271103
0	94	45.099912008695	0.290743528605
0	96	45.626450855415	0.52653884672
0	98	47.165279341276	1.538828485861
0	100	48.256119199631	1.090839858355
0	102	50.001764834761	1.74564563513
0	104	51.06774395351	1.065979118749
0	106	52.978671002949	1.910927049439
0	108	53.929768725875	0.951097722926
0	110	55.029396096973	1.099627371098
0	112	56.466455970389	1.437059873416
0	114	57.132484765287	0.666028794898
0	116	59.078554236304	1.946069471017
0	118	60.669179396681	1.590625160377
0	120	62.306011746429	1.636832349748
0	122	62.548269057376	0.242257310947
0	126	64.166881459384	1.618612402008
0	127	64.184973039209	0.018091579825
0	128	64.250140890688	0.065167851479
0	130	65.526272634614	1.276131743926
0	132	67.472841115715	1.946568481101
0	134	69.448747837319	1.975906721604
0	136	70.513325889293	1.064578051974
0	138	70.876257467157	0.362931577864
0	140	72.667314450444	1.791056983287
0	143	72.962310740634	0.29499629019
0	144	72.965139119784	0.00282837915
0	146	74.501707755152	1.536568635368
0	148	75.610034900957	1.108327145805
0	150	77.265304636189	1.655269735232
0	152	77.38429420763	0.118989571441
0	154	79.242077517586	1.857783309956
0	156	81.005997340683	1.763919823097
0	158	81.20633327462	0.200335933937
0	160	82.252390375399	1.046057100779
0	162	83.333208547241	1.080818171842
0	164	84.644477705955	1.311269158714
0	167	85.14593920979	0.501461503835
0	168	85.209410012731	0.063470802941
0	170	85.963231203815	0.753821191084
0	172	87.436219684071	1.472988480256
0	174	87.954393376559	0.518173692488
0	176	88.899291441593	0.944898065034
0	178	89.800939422881	0.901647981288
0	180	91.798770878511	1.99783145563
0	182	93.35305973628	1.554288857769
0	184	94.285839223407	0.932779487127
0	186	95.511126536617	1.22528731321
0	189	96.915187490681	1.404060954064
0	190	96.968282298475	0.053094807794
0	192	97.332736625996	0.364454327521
0	194	98.716662892719	1.383926266723
0	196	100.364985945049	1.64832305233
0	198	101.731028553436	1.366042608387
0	200	102.808297626324	1.077269072888
0	202	104.469876036342	1.661578410018
0	204	104.619091942589	0.149215906247
0	206	106.490761465791	1.871669523202
0	208	107.63961094839	1.148849482599
0	210	108.352921783213	0.713310834823
0	212	108.967801686871	0.614879903658
0	214	109.254420931703	0.286619244832
0	216	110.464043786703	1.209622855
0	218	110.596258809202	0.132215022499
0	220	110.734058175946	0.137799366744
0	222	112.727978613221	1.993920437275
0	224	114.549421686662	1.821443073441
0	226	115.542592301604	0.993170614942
0	228	115.7609276908	0.218335389196
0	230	117.323877580256	1.562949889456
0	232	117.823274736833	0.499397156577
0	234	119.191433190892	1.368158454059
0	236	119.830503281906	0.639070091014
0	238	120.681509309456	0.85100602755
0	240	121.540349175437	0.858839865981
0	242	122.062058198206	0.521709022769
0	244	122.426019535712	0.363961337506
0	247	123.524372082673	1.098352546961
0	248	123.536370486441	0.011998403768
0	250	125.193543517182	1.657173030741
0	252	125.301048681782	0.1075051646
0	254	126.140327078288	0.839278396506
0	256	127.891916250152	1.751589171864
0	258	128.851559490964	0.959643240812
0	260	129.575143126668	0.723583635704
0	262	130.845301293119	1.270158166451
0	264	132.393263952336	1.547962659217
0	266	133.00149871299	0.608234760654
0	268	133.602838944806	0.601340231816
0	270	134.328223773263	0.725384828457
0	272	135.871482553143	1.54325877988
0	274	137.422383840545	1.550901287402
0	276	139.421347903631	1.998964063086
0	278	140.011479899275	0.590131995644
0	280	140.360226376404	0.348746477129
0	282	141.74252901261	1.382302636206
0	284	142.102963453892	0.360434441282
0	286	143.924598811916	1.821635358024
0	288	144.149183360661	0.224584548745
0	290	144.741789604705	0.592606244044
0	292	146.675009983291	1.933220378586
0	294	148.310076724259	1.635066740968
0	296	148.877355822353	0.567279098094
0	298	149.13695052997	0.259594707617
0	300	150.145456108648	1.008505578678
0	302	152.099514270962	1.954058162314
0	304	153.955636399475	1.856122128513
0	306	155.800017009062	1.844380609587
0	308	156.304140217904	0.504123208842
0	310	157.10316902847	0.799028810566
0	312	158.380167662346	1.276998633876
0	314	158.897244271746	0.5170766094
0	316	159.404092902959	0.506848631213
0	318	160.00910788032	0.605014977361
0	320	160.495643993735	0.486536113415
0	322	161.707935944717	1.212291950982
0	324	162.699302982721	0.991367038004
0	326	164.60503024218	1.905727259459
0	328	166.162286934409	1.557256692229
0	330	166.975288265746	0.813001331337
0	332	167.088788994484	0.113500728738
0	334	168.69548297098	1.606693976496
0	336	170.40147256322	1.70598959224
0	338	170.969556681643	0.568084118423
0	340	172.759503826449	1.789947144806
0	342	174.400755979798	1.641252153349
0	344	174.925510084647	0.524754104849
0	346	176.468103557485	1.542593472838
0	348	176.836798070011	0.368694512526
0	350	177.485592301152	0.648794231141
0	352	177.769846552898	0.284254251746
0	354	179.231202709937	1.461356157039
0	356	180.243432148387	1.01222943845
0	358	180.783869606119	0.540437457732
0	360	181.91648230671	1.132612700591
0	362	183.737711399477	1.821229092767
0	364	185.135807955182	1.398096555705
0	366	186.945008592264	1.809200637082
0	368	188.180786918958	1.235778326694
0	370	189.90748447601	1.726697557052
0	372	190.514068664847	0.606584188837
0	374	191.375062225449	0.860993560602
0	376	192.093431706454	0.718369481005
0	378	193.729119289399	1.635687582945
0	380	194.729621633247	1.000502343848
0	382	196.173060991767	1.44343935852
0	385	198.058110327154	1.885049335387
0	386	198.081933828598	0.023823501444
0	388	198.483508766442	0.401574937844
0	390	199.753754670929	1.270245904487
0	392	200.777128747395	1.023374076466
0	394	202.626108689772	1.848979942377
0	396	204.431578433734	1.805469743962
0	398	204.962533209753	0.530954776019
0	400	206.719854441072	1.757321231319
0	402	208.018643936942	1.29878949587
0	404	208.774567562652	0.75592362571
0	406	209.583394125081	0.808826562429
0	408	211.531976170284	1.948582045203
0	410	213.349635779309	1.817659609025
0	412	214.754714423074	1.405078643765
0	414	215.911979247015	1.157264823941
0	417	216.061682212615	0.1497029656
0	418	216.119420877869	0.057738665254
0	420	216.533156593709	0.41373571584
0	422	218.189270569126	1.656113975417
0	424	218.496137124275	0.306866555149
0	426	220.00240001655	1.506262892275
0	428	221.762554614252	1.760154597702
0	430	222.681545341727	0.918990727475
0	432	224.158600289252	1.477054947525
0	434	225.021169617841	0.862569328589
0	436	226.224050949126	1.202881331285
0	438	227.050192839605	0.826141890479
0	441	228.017056408242	0.966863568637
0	442	228.093426021338	0.076369613096
0	445	229.637550499075	1.544124477737
0	446	229.737500119329	0.099949620254
0	448	231.590791027227	1.853290907898
0	450	231.851566532655	0.260775505428
0	452	232.705255782488	0.853689249833
0	454	234.661028412798	1.95577263031
0	456	235.331744695756	0.670716282958
0	458	236.059941194505	0.728196498749
0	460	236.858160156765	0.79821896226
0	462	238.524695765859	1.666535609094
0	464	239.988226419539	1.46353065368
0	466	241.548301100153	1.560074680614
0	468	241.724094329966	0.175793229813
0	470	242.280874308344	0.556779978378
0	472	244.082263995179	1.801389686835
0	474	246.039714019395	1.957450024216
0	476	246.901841915987	0.862127896592
0	478	248.685935646281	1.784093730294
0	481	249.948865319071	1.26292967279
0	482	250.00750315019	0.058637831119
0	484	251.533519617709	1.526016467519
0	486	253.29242180262	1.758902184911
0	488	255.16254887683	1.87012707421
0	490	256.389148565104	1.226599688274
0	492	257.84978076413	1.460632199026
0	494	258.695856593508	0.846075829378
0	496	260.692323221988	1.99646662848
0	498	261.306741130047	0.614417908059
0	500	261.828694233835	0.521953103788
0	504	262.294095702589	0.465401468754
0	505	262.296475872507	0.002380169918
0	506	262.299991872256	0.003515999749
0	508	263.393399975534	1.093408103278
0	510	264.302739936199	0.909339960665
0	512	265.579450322014	1.276710385815
0	514	267.250345176391	1.670894854377
0	516	267.980322125476	0.729976949085
0	518	268.7025700807	0.722247955224
0	520	269.523617621816	0.821047541116
0	522	270.869297137864	1.345679516048
0	524	271.704979586166	0.835682448302
0	526	273.019811433693	1.314831847527
0	528	273.398006658336	0.378195224643
0	530	273.724957087866	0.32695042953
0	532	274.780976508932	1.056019421066
0	534	275.299263867477	0.518287358545
0	536	276.154672592095	0.855408724618
0	538	277.008859779128	0.854187187033
0	540	277.333102965704	0.324243186576
0	542	278.888395923315	1.555292957611
0	544	280.697034607808	1.808638684493
0	546	282.487214806774	1.790180198966
0	548	284.046629187135	1.559414380361
0	550	285.123488180069	1.076858992934
0	552	285.892164100267	0.768675920198
0	554	287.028304203721	1.136140103454
0	556	288.135767439808	1.107463236087
0	558	289.271228288733	1.135460848925
0	560	290.9610675257	1.689839236967
0	562	292.089691006642	1.128623480942
0	565	292.865560909412	0.77586990277
0	566	292.910825816407	0.045264906995
0	568	293.678121173829	0.767295357422
0	570	295.611064390818	1.932943216989
0	572	296.587281358693	0.976216967875
0	574	297.866185672264	1.278904313571
0	576	298.412005429397	0.545819757133
0	578	300.004580138488	1.592574709091
0	580	300.408620562848	0.40404042436
0	582	301.116142058153	0.707521495305
0	584	302.429560917977	1.313418859824
0	586	303.060485617083	0.630924699106
0	588	305.012233622585	1.951748005502
0	590	306.04090822088	1.028674598295
0	592	306.975304960827	0.934396739947
0	594	307.381854472501	0.406549511674
0	596	308.259497040832	0.877642568331
0	598	308.798366777203	0.538869736371
0	600	309.582396019368	0.784029242165
0	602	310.761475308743	1.179079289375
0	604	311.54644654271	0.784971233967
0	606	312.55820820391	1.0117616612
0	608	313.236290786467	0.678082582557
0	610	313.770010383527	0.53371959706
0	612	313.995773032972	0.225762649445
0	614	314.388639583238	0.392866550266
0	616	315.296670447095	0.908030863857
0	618	316.571781997925	1.27511155083
0	620	317.371119739363	0.799337741438
0	622	317.84086748939	0.469747750027
0	624	318.891150321048	1.050282831658
0	626	318.995643424541	0.104493103493
0	628	319.211288811426	0.215645386885
0	630	319.563244462221	0.351955650795
0	632	320.881909961275	1.318665499054
0	634	321.693867615286	0.811957654011
0	636	322.266048658951	0.572181043665
0	638	322.912799464064	0.646750805113
0	640	324.854100205891	1.941300741827
0	642	326.295003029159	1.440902823268
0	644	327.548065868302	1.253062839143
0	646	327.775408994502	0.2273431262
0	648	328.731395430768	0.955986436266
0	650	329.995424809249	1.264029378481
0	652	330.53675365444	0.541328845191
0	654	330.650946728377	0.114193073937
0	656	331.893902169529	1.242955441152
0	659	332.246378645708	0.352476476179
0	660	332.318712994567	0.072334348859
0	662	334.042104162778	1.723391168211
0	664	335.077475223676	1.035371060898
0	666	336.558380273609	1.480905049933
0	668	338.130450627353	1.572070353744
0	670	339.917914404249	1.787463776896
0	672	341.821499234365	1.903584830116
0	674	343.372824072371	1.551324838006
0	676	344.489996309006	1.117172236635
0	678	344.803049140804	0.313052831798
0	680	346.282017158999	1.478968018195
0	682	347.297706289436	1.015689130437
0	684	347.984842877102	0.687136587666
0	687	348.689790584251	0.704947707149
0	688	348.745536073918	0.055745489667
0	690	349.659969549481	0.914433475563
0	692	350.543040849231	0.88307129975
0	694	352.322052091486	1.779011242255
0	696	354.164841495482	1.842789403996
0	698	355.925493911175	1.760652415693
0	700	357.211734245185	1.28624033401
0	703	359.05347091195	1.841736666765
0	704	359.12205217986	0.06858126791
0	706	359.767474159027	0.645421979167
0	708	361.374805786011	1.607331626984
0	710	361.797364598567	0.422558812556
0	712	363.743375299405	1.946010700838
0	714	364.344950850358	0.601575550953
0	716	365.025344424193	0.680393573835
0	718	366.400614666019	1.375270241826
0	721	366.567455337828	0.166840671809
0	722	366.658686191846	0.091230854018
0	725	367.975641037602	1.316954845756
0	726	368.035443312508	0.059802274906
0	728	369.132282259126	1.096838946618
0	730	369.704197823704	0.571915564578
0	732	369.888744219084	0.18454639538
0	734	371.560135103313	1.671390884229
0	736	372.626588436614	1.066453333301
0	738	374.506935084757	1.880346648143
0	740	375.493867656417	0.98693257166
0	742	376.869769111428	1.375901455011
0	744	377.645863783313	0.776094671885
0	746	379.468870167371	1.823006384058
0	749	380.737275480435	1.268405313064
0	750	380.825610278886	0.088334798451
0	752	381.468605931788	0.642995652902
0	754	382.296405725455	0.827799793667
0	756	383.127710927871	0.831305202416
0	758	384.874264699365	1.746553771494
0	760	385.203949164138	0.329684464773
0	762	386.210789508257	1.006840344119
0	764	388.176921664205	1.966132155948
0	766	388.959638292888	0.782716628683
0	768	390.077685287286	1.118046994398
0	770	391.093136237563	1.015450950277
0	773	391.777851922987	0.684715685424
0	774	391.794867616626	0.017015693639
0	776	393.777631971793	1.982764355167
0	778	394.097299518424	0.319667546631
0	780	394.749623715428	0.652324197004
0	782	396.362828426456	1.613204711028
0	784	397.494796443212	1.131968016756
0	786	398.48151300764	0.986716564428
0	789	400.227215744019	1.745702736379
0	790	400.252582504705	0.025366760686
0	793	400.59173129296	0.339148788255
0	794	400.665644986085	0.073913693125
0	796	400.933044057636	0.267399071551
0	798	401.10913490834	0.176090850704
0	800	402.668060530616	1.558925622276
0	802	403.531364069217	0.863303538601
0	804	405.074441770187	1.54307770097
0	806	405.581887222705	0.507445452518
0	808	406.218100522711	0.636213300006
0	810	407.055379898649	0.837279375938
0	812	407.210025057856	0.154645159207
0	814	408.331180792094	1.121155734238
0	816	409.594909405539	1.263728613445
0	818	411.082548111374	1.487638705835
0	820	411.826954629645	0.744406518271
0	823	413.067630431562	1.240675801917
0	824	413.105020518208	0.037390086646
0	827	413.520209663502	0.415189145294
0	828	413.604049936479	0.083840272977
0	830	414.707571279004	1.103521342525
0	832	415.590311892186	0.882740613182
0	834	415.811427048288	0.221115156102
0	836	416.093966534015	0.282539485727
0	838	416.735062229268	0.641095695253
0	840	417.63011716201	0.895054932742
0	842	418.818205574196	1.188088412186
0	844	419.020615958379	0.202410384183
0	846	420.931833163227	1.911217204848
0	849	422.760480769262	1.828647606035
0	850	422.840434715107	0.079953945845
0	852	424.626392997891	1.785958282784
0	854	425.227639113973	0.601246116082
0	856	426.371408611927	1.143769497954
0	858	427.706137205054	1.334728593127
0	860	428.488686821523	0.782549616469
0	862	428.799790790061	0.311103968538
0	864	429.524448620669	0.724657830608
0	866	430.849148493935	1.324699873266
0	868	431.079049583257	0.229901089322
0	870	433.026581513832	1.947531930575
0	873	433.196154104919	0.169572591087
0	874	433.202783769342	0.006629664423
0	876	434.62755423794	1.424770468598
0	878	434.744976155076	0.117421917136
0	880	436.255177722262	1.510201567186
0	882	438.213784553419	1.958606831157
0	884	438.51847640331	0.304691849891
0	886	439.474311324569	0.955834921259
0	888	440.19164010848	0.717328783911
0	890	440.336707188741	0.145067080261
0	892	440.479057995943	0.142350807202
0	894	440.96908557062	0.490027574677
0	896	442.862508166471	1.893422595851
0	898	443.615611360007	0.753103193536
0	900	445.020886341471	1.405274981464
0	902	445.477388419564	0.456502078093
0	904	445.907834297498	0.430445877934
0	906	446.411565546197	0.503731248699
0	908	446.623014110456	0.211448564259
0	910	448.439128051839	1.816113941383
0	912	449.866827969506	1.427699917667
0	914	451.219234465736	1.35240649623
0	916	453.116243830677	1.897009364941
0	918	454.152300583406	1.036056752729
0	920	455.158411009048	1.006110425642
0	922	456.855754470761	1.697343461713
0	924	458.107946486048	1.252192015287
0	926	459.699603402822	1.591656916774
0	928	460.677948256507	0.978344853685
0	930	461.720417396104	1.042469139597
0	932	462.499843073548	0.779425677444
0	934	464.3072479419	1.807404868352
0	936	465.361728967091	1.054481025191
0	938	466.023742793133	0.662013826042
0	940	466.490026976871	0.466284183738
0	942	467.32827617998	0.838249203109
0	944	467.78297885346	0.45470267348
0	947	467.97087820381	0.18789935035
0	948	467.995195684334	0.024317480524
0	950	468.699092740414	0.70389705608
0	952	469.096529983439	0.397437243025
0	954	470.824163094992	1.727633111553
0	956	471.154189243389	0.330026148397
0	958	471.903847169262	0.749657925873
0	960	473.405087416561	1.501240247299
0	962	474.749913632518	1.344826215957
0	964	475.244463113553	0.494549481035
0	966	477.13784792006	1.893384806507
0	968	477.25638908576	0.1185411657
0	970	477.577801409348	0.321412323588
0	972	479.55477994167	1.976978532322
0	974	480.632529427993	1.077749486323
0	976	482.36865131381	1.736121885817
0	978	483.36927239011	1.0006210763
0	980	484.807903680375	1.438631290265
0	982	485.884359865121	1.076456184746
0	984	487.884181162204	1.999821297083
0	986	488.881187634045	0.997006471841
0	988	489.568801535704	0.687613901659
0	990	490.295464645367	0.726663109663
0	992	491.322545296258	1.027080650891
0	994	491.468015765852	0.145470469594
0	996	492.39030328582	0.922287519968
0	998	493.276972560333	0.886669274513
0	1000	493.527380761717	0.250408201384
0	1002	494.137868458725	0.610487697008
0	1004	494.604310177538	0.466441718813
0	1006	496.090173141804	1.485862964266
0	1008	496.989377928713	0.899204786909
0	1010	497.924143919432	0.934765990719
0	1012	498.536190337499	0.612046418067
0	1014	499.19990045212	0.663710114621
0	1016	500.176317333973	0.976416881853
0	1018	500.815348145526	0.639030811553
0	1020	501.005902554964	0.190554409438
0	1022	501.653876626196	0.647974071232
0	1024	502.153656265777	0.499779639581
0	1026	503.950284852816	1.796628587039
0	1028	505.887006646641	1.936721793825
0	1030	506.371189181259	0.484182534618
0	1033	508.02728908998	1.656099908721
0	1034	508.099067171043	0.071778081063
0	1036	508.473249811016	0.374182639973
0	1038	509.36073632481	0.887486513794
0	1040	511.347064322464	1.986327997654
0	1042	511.561841880626	0.214777558162
0	1045	513.328372267944	1.766530387318
0	1046	513.405071725692	0.076699457748
0	1048	514.492848382155	1.087776656463
0	1050	514.754273458999	0.261425076844
0	1052	516.525434769569	1.77116131057
0	1054	518.434155612695	1.908720843126
0	1056	520.305121085835	1.87096547314
0	1058	521.621345536277	1.316224450442
0	1060	523.405064949403	1.783719413126
0	1062	524.378160779672	0.973095830269
0	1064	525.199526013543	0.821365233871
0	1066	525.885043381435	0.685517367892
0	1068	527.375122420627	1.490079039192
0	1070	529.134024009491	1.758901588864
0	1072	530.993429042615	1.859405033124
0	1074	532.013258907708	1.019829865093
0	1076	532.294599744034	0.281340836326
0	1078	532.789994836161	0.495395092127
0	1080	532.895346194381	0.10535135822
0	1083	533.535678830975	0.640332636594
0	1084	533.606507693173	0.070828862198
0	1086	534.027247044152	0.420739350979
0	1088	535.39355119772	1.366304153568
0	1090	536.867799720162	1.474248522442
0	1092	538.56336159905	1.695561878888
0	1094	539.872271844352	1.308910245302
0	1096	540.726458018106	0.854186173754
0	1098	541.033561471914	0.307103453808
0	1100	542.521098373017	1.487536901103
0	1102	543.554081433437	1.03298306042
0	1104	544.90047274815	1.346391314713
0	1106	545.699637159282	0.799164411132
0	1108	547.255878069159	1.556240909877
0	1110	548.996844501275	1.740966432116
0	1112	549.419254719452	0.422410218177
0	1114	550.867589169009	1.448334449557
0	1116	551.025607861689	0.15801869268
0	1118	552.845897466049	1.82028960436
0	1120	554.45266618677	1.606768720721
0	1122	555.414428074672	0.961761887902
0	1124	555.746770936393	0.332342861721
0	1126	557.43308551231	1.686314575917
0	1128	559.322605315247	1.889519802937
0	1130	560.481671153127	1.15906583788
0	1132	560.901547726877	0.41987657375
0	1134	561.767092340507	0.86554461363
0	1136	562.97516690526	1.208074564753
0	1138	563.084923270228	0.109756364968
0	1140	563.76020467291	0.675281402682
0	1142	565.214775675634	1.454571002724
0	1144	566.189776947179	0.975001271545
0	1146	567.036034749537	0.846257802358
0	1148	568.09068648243	1.054651732893
0	1150	569.621972477363	1.531285994933
0	1152	569.94599456051	0.324022083147
0	1154	571.785045680411	1.839051119901
0	1156	572.716513626939	0.931467946528
0	1158	573.897924053961	1.181410427022
0	1161	575.8632963699	1.965372315939
0	1162	575.876211493101	0.012915123201
0	1164	576.94068809797	1.064476604869
0	1166	577.5994433977	0.65875529973
0	1168	579.300207808381	1.700764410681
0	1170	580.047506761237	0.747298952856
0	1172	581.901409093578	1.853902332341
0	1174	582.437565686135	0.536156592557
0	1176	583.620988365957	1.183422679822
0	1178	585.405166615637	1.78417824968
0	1180	586.089787529676	0.684620914039
0	1182	586.513792708536	0.42400517886
0	1184	586.769007190036	0.2552144815
0	1186	588.158973910645	1.389966720609
0	1189	589.32884595137	1.169872040725
0	1190	589.36747886191	0.03863291054
0	1192	590.670824894436	1.303346032526
0	1194	592.008178714527	1.337353820091
0	1196	592.913951158403	0.905772443876
0	1198	594.231688255514	1.317737097111
0	1200	595.44002567675	1.208337421236
0	1202	595.967078792343	0.527053115593
0	1204	596.148441658955	0.181362866612
0	1206	596.314123407858	0.165681748903
0	1208	596.927383853325	0.613260445467
0	1210	597.995643922611	1.068260069286
0	1213	598.242569439516	0.246925516905
0	1214	598.31978230187	0.077212862354
0	1216	600.036381401627	1.716599099757
0	1218	600.91844353514	0.882062133513
0	1220	601.736695201195	0.818251666055
0	1222	602.092665850648	0.355970649453
0	1224	602.891429778173	0.798763927525
0	1226	603.717274897127	0.825845118954
0	1228	605.695798501045	1.978523603918
0	1230	606.74291263059	1.047114129545
0	1232	607.589197731875	0.846285101285
0	1234	609.102662534139	1.513464802264
0	1236	609.905240622473	0.802578088334
0	1238	610.835671030954	0.930430408481
0	1240	612.580056027852	1.744384996898
0	1242	614.458049961466	1.877993933614
0	1244	615.902799668492	1.444749707026
0	1246	617.811752969732	1.90895330124
0	1248	619.58982973037	1.778076760638
0	1251	619.726802127374	0.136972397004
0	1252	619.821889088969	0.095086961595
0	1254	619.948444263039	0.12655517407
0	1256	620.961139332972	1.012695069933
0	1258	621.327492128025	0.366352795053
0	1260	622.619056229675	1.29156410165
0	1262	623.937371730256	1.318315500581
0	1264	624.865684087694	0.928312357438
0	1266	625.011797169862	0.146113082168
0	1268	626.734270784175	1.722473614313
0	1270	628.348595108846	1.614324324671
0	1272	630.297894078713	1.949298969867
0	1274	632.165532659014	1.867638580301
0	1276	633.56765503162	1.402122372606
0	1278	635.037711917039	1.470056885419
0	1280	636.284132653014	1.246420735975
0	1282	636.877694299905	0.593561646891
0	1284	638.868088645618	1.990394345713
0	1286	639.426181833525	0.558093187907
0	1288	641.298480781773	1.872298948248
0	1290	643.026139642532	1.727658860759
0	1292	643.789230130701	0.763090488169
0	1294	645.050857203589	1.261627072888
0	1296	645.21699579229	0.166138588701
0	1298	645.508221880097	0.291226087807
0	1300	646.145086360844	0.636864480747
0	1302	647.926087444552	1.781001083708
0	1304	649.211422264803	1.285334820251
0	1306	649.833077786033	0.62165552123
0	1308	649.997376856195	0.164299070162
0	1310	651.371830395181	1.374453538986
0	1312	651.811908115451	0.44007772027
0	1315	652.19806121579	0.386153100339
0	1317	652.273154306016	0.075093090226
0	1318	652.362774463725	0.089620157709
0	1320	652.608709336537	0.245934872812
0	1323	654.03621375097	1.427504414433
0	1324	654.103846172544	0.067632421574
0	1326	654.801945127223	0.698098954679
0	1328	655.750644716881	0.948699589658
0	1331	656.544486016024	0.793841299143
0	1332	656.635684206697	0.091198190673
0	1334	657.403619241164	0.767935034467
0	1336	658.087583252415	0.683964011251
0	1338	659.471070232908	1.383486980493
0	1340	659.736231358673	0.265161125765
0	1342	660.299073308214	0.562841949541
0	1344	661.983543239592	1.684469931378
0	1346	662.870169062319	0.886625822727
0	1348	664.390627396736	1.520458334417
0	1350	664.734690528328	0.344063131592
0	1352	665.403941729123	0.669251200795
0	1354	665.509300478319	0.105358749196
0	1356	666.273806278772	0.764505800453
0	1358	667.323181808531	1.049375529759
0	1360	668.177963075056	0.854781266525
0	1362	668.487260337411	0.309297262355
0	1364	668.846497679012	0.359237341601
0	1366	670.548509853322	1.70201217431
0	1368	672.267300973486	1.718791120164
0	1371	673.989084962061	1.721783988575
0	1372	674.012963407812	0.023878445751
0	1374	675.337987291926	1.325023884114
0	1376	677.014931779304	1.676944487378
0	1378	677.42148233406	0.406550554756
0	1381	678.316828137468	0.895345803408
0	1382	678.394174678138	0.07734654067
0	1384	680.357442711707	1.963268033569
0	1386	681.003120394799	0.645677683092
0	1388	682.907582605282	1.904462210483
0	1390	683.205023728979	0.297441123697
0	1392	684.298028189605	1.093004460626
0	1394	684.423737365153	0.125709175548
0	1396	685.217970028392	0.794232663239
0	1398	685.886167180653	0.668197152261
0	1400	686.275897334524	0.389730153871
0	1402	686.470842475398	0.194945140874
0	1404	686.913793139534	0.442950664136
0	1406	687.58565490455	0.671861765016
0	1408	689.566156309783	1.980501405233
0	1410	689.852486740309	0.286330430526
0	1412	690.208038905553	0.355552165244
0	1414	691.97329172692	1.765252821367
0	1417	692.578159301995	0.604867575075
0	1418	692.587258216409	0.009098914414
0	1420	693.512713484816	0.925455268407
0	1422	693.63933967782	0.126626193004
0	1425	693.845806515691	0.206466837871
0	1426	693.934060371034	0.088253855343
0	1428	695.216629535778	1.282569164744
0	1430	695.356867566948	0.14023803117
0	1432	696.337436865967	0.980569299019
0	1434	696.766158947779	0.428722081812
0	1436	698.298033002135	1.531874054356
0	1438	698.505350711208	0.207317709073
0	1440	698.894024730383	0.388674019175
0	1442	699.338466970946	0.444442240563
0	1444	701.079472980546	1.7410060096
0	1447	702.167594151855	1.088121171309
0	1448	702.220188112997	0.052593961142
0	1450	704.166912758267	1.94672464527
0	1452	704.767423710664	0.600510952397
0	1454	705.555406707714	0.78798299705
0	1456	707.185557615229	1.630150907515
0	1458	709.132955673773	1.947398058544
0	1460	711.052087064113	1.91913139034
0	1462	711.893887333129	0.841800269016
0	1464	712.030681914578	0.136794581449
0	1466	713.137269796855	1.106587882277
0	1468	713.559422493165	0.42215269631
0	1470	714.679837460881	1.120414967716
0	1472	715.493315271746	0.813477810865
0	1474	715.615273564267	0.121958292521
0	1476	717.368289671321	1.753016107054
0	1478	718.309900540209	0.941610868888
0	1480	719.963877450701	1.653976910492
0	1482	720.35378236539	0.389904914689
0	1484	721.485791747769	1.132009382379
0	1486	723.166801152695	1.681009404926
0	1488	723.89276563632	0.725964483625
0	1490	725.177474965431	1.284709329111
0	1492	725.287126962667	0.109651997236
0	1494	726.208205938863	0.921078976196
0	1496	726.782942531662	0.574736592799
0	1498	728.381026974884	1.598084443222
0	1500	729.386715399643	1.005688424759
0	1503	729.992773517888	0.606058118245
0	1504	730.012035952723	0.019262434835
0	1506	731.755779722855	1.743743770132
0	1508	732.857191895429	1.101412172574
0	1510	734.2922556093	1.435063713871
0	1512	735.407969916329	1.115714307029
0	1515	737.217693643772	1.809723727443
0	1516	737.244973456502	0.02727981273
0	1518	737.736772451412	0.49179899491
0	1520	739.402674105507	1.665901654095
0	1522	740.212559604051	0.809885498544
0	1524	741.958524481657	1.745964877606
0	1526	742.389479711081	0.430955229424
0	1528	743.454178879693	1.064699168612
0	1530	743.853641309726	0.399462430033
0	1532	745.618702204138	1.765060894412
0	1534	746.99700811051	1.378305906372
0	1536	748.185264846212	1.188256735702
0	1538	749.215749399142	1.03048455293
0	1540	750.56978775133	1.354038352188
0	1542	751.892821197944	1.323033446614
0	1544	752.115245942592	0.222424744648
0	1546	752.407977613918	0.292731671326
0	1548	754.349121714739	1.941144100821
0	1550	755.159049592185	0.809927877446
0	1552	755.616947938879	0.457898346694
0	1554	757.514339369591	1.897391430712
0	1556	758.972777402443	1.458438032852