version 2
run General-0-20160627-21:12:47-4204
attr configname General
attr datetime 20160627-21:12:47
attr experiment General
attr inifile omnetpp.ini
attr iterationvars $simtime=600
attr iterationvars2 "$simtime=600, $repetition=0"
attr measurement $simtime=600
attr network Network
attr processid 4204
attr repetition 0
attr replication #0
attr resultdir results
attr runnumber 0
attr seedset 0
attr simtime 600

vector 13900  Network.routerNets[0].clientNets[0].clients[0].ppp[0].outputHook[0]  "thruput (bit/sec)"  ETV
vector 13901  Network.routerNets[0].clientNets[0].clients[0].ppp[0].outputHook[0]  packet/sec  ETV
vector 13904  Network.routerNets[0].clientNets[1].clients[0].ppp[0].outputHook[0]  "thruput (bit/sec)"  ETV
vector 13905  Network.routerNets[0].clientNets[1].clients[0].ppp[0].outputHook[0]  packet/sec  ETV
vector 13908  Network.routerNets[0].clientNets[2].clients[0].ppp[0].outputHook[0]  "thruput (bit/sec)"  ETV
vector 13909  Network.routerNets[0].clientNets[2].clients[0].ppp[0].outputHook[0]  packet/sec  ETV
vector 13912  Network.routerNets[0].clientNets[3].clients[0].ppp[0].outputHook[0]  "thruput (bit/sec)"  ETV
vector 13913  Network.routerNets[0].clientNets[3].clients[0].ppp[0].outputHook[0]  packet/sec  ETV
vector 13916  Network.routerNets[0].clientNets[4].clients[0].ppp[0].outputHook[0]  "thruput (bit/sec)"  ETV
vector 13917  Network.routerNets[0].clientNets[4].clients[0].ppp[0].outputHook[0]  packet/sec  ETV
vector 13920  Network.routerNets[1].clientNets[0].clients[0].ppp[0].outputHook[0]  "thruput (bit/sec)"  ETV
vector 13921  Network.routerNets[1].clientNets[0].clients[0].ppp[0].outputHook[0]  packet/sec  ETV
vector 13924  Network.routerNets[1].clientNets[1].clients[0].ppp[0].outputHook[0]  "thruput (bit/sec)"  ETV
vector 13925  Network.routerNets[1].clientNets[1].clients[0].ppp[0].outputHook[0]  packet/sec  ETV
vector 13928  Network.routerNets[1].clientNets[2].clients[0].ppp[0].outputHook[0]  "thruput (bit/sec)"  ETV
vector 13929  Network.routerNets[1].clientNets[2].clients[0].ppp[0].outputHook[0]  packet/sec  ETV
vector 13932  Network.routerNets[1].clientNets[3].clients[0].ppp[0].outputHook[0]  "thruput (bit/sec)"  ETV
vector 13933  Network.routerNets[1].clientNets[3].clients[0].ppp[0].outputHook[0]  packet/sec  ETV
vector 13936  Network.routerNets[1].clientNets[4].clients[0].ppp[0].outputHook[0]  "thruput (bit/sec)"  ETV
vector 13937  Network.routerNets[1].clientNets[4].clients[0].ppp[0].outputHook[0]  packet/sec  ETV
vector 13940  Network.routerNets[2].clientNets[0].clients[0].ppp[0].outputHook[0]  "thruput (bit/sec)"  ETV
vector 13941  Network.routerNets[2].clientNets[0].clients[0].ppp[0].outputHook[0]  packet/sec  ETV
vector 13944  Network.routerNets[2].clientNets[1].clients[0].ppp[0].outputHook[0]  "thruput (bit/sec)"  ETV
vector 13945  Network.routerNets[2].clientNets[1].clients[0].ppp[0].outputHook[0]  packet/sec  ETV
vector 13948  Network.routerNets[2].clientNets[2].clients[0].ppp[0].outputHook[0]  "thruput (bit/sec)"  ETV
vector 13949  Network.routerNets[2].clientNets[2].clients[0].ppp[0].outputHook[0]  packet/sec  ETV
vector 13952  Network.routerNets[2].clientNets[3].clients[0].ppp[0].outputHook[0]  "thruput (bit/sec)"  ETV
vector 13953  Network.routerNets[2].clientNets[3].clients[0].ppp[0].outputHook[0]  packet/sec  ETV
vector 13956  Network.routerNets[2].clientNets[4].clients[0].ppp[0].outputHook[0]  "thruput (bit/sec)"  ETV
vector 13957  Network.routerNets[2].clientNets[4].clients[0].ppp[0].outputHook[0]  packet/sec  ETV
vector 13960  Network.routerNets[3].clientNets[0].clients[0].ppp[0].outputHook[0]  "thruput (bit/sec)"  ETV
vector 13961  Network.routerNets[3].clientNets[0].clients[0].ppp[0].outputHook[0]  packet/sec  ETV
vector 13964  Network.routerNets[3].clientNets[1].clients[0].ppp[0].outputHook[0]  "thruput (bit/sec)"  ETV
vector 13965  Network.routerNets[3].clientNets[1].clients[0].ppp[0].outputHook[0]  packet/sec  ETV
vector 13968  Network.routerNets[3].clientNets[2].clients[0].ppp[0].outputHook[0]  "thruput (bit/sec)"  ETV
vector 13969  Network.routerNets[3].clientNets[2].clients[0].ppp[0].outputHook[0]  packet/sec  ETV
vector 13972  Network.routerNets[3].clientNets[3].clients[0].ppp[0].outputHook[0]  "thruput (bit/sec)"  ETV
vector 13973  Network.routerNets[3].clientNets[3].clients[0].ppp[0].outputHook[0]  packet/sec  ETV
vector 13976  Network.routerNets[3].clientNets[4].clients[0].ppp[0].outputHook[0]  "thruput (bit/sec)"  ETV
vector 13977  Network.routerNets[3].clientNets[4].clients[0].ppp[0].outputHook[0]  packet/sec  ETV
vector 13980  Network.routerNets[4].clientNets[0].clients[0].ppp[0].outputHook[0]  "thruput (bit/sec)"  ETV
vector 13981  Network.routerNets[4].clientNets[0].clients[0].ppp[0].outputHook[0]  packet/sec  ETV
vector 13984  Network.routerNets[4].clientNets[1].clients[0].ppp[0].outputHook[0]  "thruput (bit/sec)"  ETV
vector 13985  Network.routerNets[4].clientNets[1].clients[0].ppp[0].outputHook[0]  packet/sec  ETV
vector 13988  Network.routerNets[4].clientNets[2].clients[0].ppp[0].outputHook[0]  "thruput (bit/sec)"  ETV
vector 13989  Network.routerNets[4].clientNets[2].clients[0].ppp[0].outputHook[0]  packet/sec  ETV
vector 13992  Network.routerNets[4].clientNets[3].clients[0].ppp[0].outputHook[0]  "thruput (bit/sec)"  ETV
vector 13993  Network.routerNets[4].clientNets[3].clients[0].ppp[0].outputHook[0]  packet/sec  ETV
vector 13996  Network.routerNets[4].clientNets[4].clients[0].ppp[0].outputHook[0]  "thruput (bit/sec)"  ETV
vector 13997  Network.routerNets[4].clientNets[4].clients[0].ppp[0].outputHook[0]  packet/sec  ETV
vector 14002  Network.server.ppp[0].inputHook[0]  "thruput (bit/sec)"  ETV
vector 14003  Network.server.ppp[0].inputHook[0]  packet/sec  ETV
vector 14000  Network.server.ppp[0].outputHook[0]  "thruput (bit/sec)"  ETV
vector 14001  Network.server.ppp[0].outputHook[0]  packet/sec  ETV
vector 13902  Network.routerNets[0].clientNets[0].clients[0].ppp[0].inputHook[0]  "thruput (bit/sec)"  ETV
vector 13903  Network.routerNets[0].clientNets[0].clients[0].ppp[0].inputHook[0]  packet/sec  ETV
vector 13922  Network.routerNets[1].clientNets[0].clients[0].ppp[0].inputHook[0]  "thruput (bit/sec)"  ETV
vector 13923  Network.routerNets[1].clientNets[0].clients[0].ppp[0].inputHook[0]  packet/sec  ETV
vector 13942  Network.routerNets[2].clientNets[0].clients[0].ppp[0].inputHook[0]  "thruput (bit/sec)"  ETV
vector 13943  Network.routerNets[2].clientNets[0].clients[0].ppp[0].inputHook[0]  packet/sec  ETV
vector 13962  Network.routerNets[3].clientNets[0].clients[0].ppp[0].inputHook[0]  "thruput (bit/sec)"  ETV
vector 13963  Network.routerNets[3].clientNets[0].clients[0].ppp[0].inputHook[0]  packet/sec  ETV
vector 13982  Network.routerNets[4].clientNets[0].clients[0].ppp[0].inputHook[0]  "thruput (bit/sec)"  ETV
vector 13983  Network.routerNets[4].clientNets[0].clients[0].ppp[0].inputHook[0]  packet/sec  ETV
vector 13906  Network.routerNets[0].clientNets[1].clients[0].ppp[0].inputHook[0]  "thruput (bit/sec)"  ETV
vector 13907  Network.routerNets[0].clientNets[1].clients[0].ppp[0].inputHook[0]  packet/sec  ETV
vector 13926  Network.routerNets[1].clientNets[1].clients[0].ppp[0].inputHook[0]  "thruput (bit/sec)"  ETV
vector 13927  Network.routerNets[1].clientNets[1].clients[0].ppp[0].inputHook[0]  packet/sec  ETV
vector 13946  Network.routerNets[2].clientNets[1].clients[0].ppp[0].inputHook[0]  "thruput (bit/sec)"  ETV
vector 13947  Network.routerNets[2].clientNets[1].clients[0].ppp[0].inputHook[0]  packet/sec  ETV
vector 13966  Network.routerNets[3].clientNets[1].clients[0].ppp[0].inputHook[0]  "thruput (bit/sec)"  ETV
vector 13967  Network.routerNets[3].clientNets[1].clients[0].ppp[0].inputHook[0]  packet/sec  ETV
vector 13986  Network.routerNets[4].clientNets[1].clients[0].ppp[0].inputHook[0]  "thruput (bit/sec)"  ETV
vector 13987  Network.routerNets[4].clientNets[1].clients[0].ppp[0].inputHook[0]  packet/sec  ETV
vector 13910  Network.routerNets[0].clientNets[2].clients[0].ppp[0].inputHook[0]  "thruput (bit/sec)"  ETV
vector 13911  Network.routerNets[0].clientNets[2].clients[0].ppp[0].inputHook[0]  packet/sec  ETV
vector 13930  Network.routerNets[1].clientNets[2].clients[0].ppp[0].inputHook[0]  "thruput (bit/sec)"  ETV
vector 13931  Network.routerNets[1].clientNets[2].clients[0].ppp[0].inputHook[0]  packet/sec  ETV
vector 13950  Network.routerNets[2].clientNets[2].clients[0].ppp[0].inputHook[0]  "thruput (bit/sec)"  ETV
vector 13951  Network.routerNets[2].clientNets[2].clients[0].ppp[0].inputHook[0]  packet/sec  ETV
vector 13970  Network.routerNets[3].clientNets[2].clients[0].ppp[0].inputHook[0]  "thruput (bit/sec)"  ETV
vector 13971  Network.routerNets[3].clientNets[2].clients[0].ppp[0].inputHook[0]  packet/sec  ETV
vector 13990  Network.routerNets[4].clientNets[2].clients[0].ppp[0].inputHook[0]  "thruput (bit/sec)"  ETV
vector 13991  Network.routerNets[4].clientNets[2].clients[0].ppp[0].inputHook[0]  packet/sec  ETV
vector 13914  Network.routerNets[0].clientNets[3].clients[0].ppp[0].inputHook[0]  "thruput (bit/sec)"  ETV
vector 13915  Network.routerNets[0].clientNets[3].clients[0].ppp[0].inputHook[0]  packet/sec  ETV
vector 13934  Network.routerNets[1].clientNets[3].clients[0].ppp[0].inputHook[0]  "thruput (bit/sec)"  ETV
vector 13935  Network.routerNets[1].clientNets[3].clients[0].ppp[0].inputHook[0]  packet/sec  ETV
vector 13954  Network.routerNets[2].clientNets[3].clients[0].ppp[0].inputHook[0]  "thruput (bit/sec)"  ETV
vector 13955  Network.routerNets[2].clientNets[3].clients[0].ppp[0].inputHook[0]  packet/sec  ETV
vector 13974  Network.routerNets[3].clientNets[3].clients[0].ppp[0].inputHook[0]  "thruput (bit/sec)"  ETV
vector 13975  Network.routerNets[3].clientNets[3].clients[0].ppp[0].inputHook[0]  packet/sec  ETV
vector 13994  Network.routerNets[4].clientNets[3].clients[0].ppp[0].inputHook[0]  "thruput (bit/sec)"  ETV
vector 13995  Network.routerNets[4].clientNets[3].clients[0].ppp[0].inputHook[0]  packet/sec  ETV
vector 13918  Network.routerNets[0].clientNets[4].clients[0].ppp[0].inputHook[0]  "thruput (bit/sec)"  ETV
vector 13919  Network.routerNets[0].clientNets[4].clients[0].ppp[0].inputHook[0]  packet/sec  ETV
vector 13938  Network.routerNets[1].clientNets[4].clients[0].ppp[0].inputHook[0]  "thruput (bit/sec)"  ETV
vector 13939  Network.routerNets[1].clientNets[4].clients[0].ppp[0].inputHook[0]  packet/sec  ETV
vector 13958  Network.routerNets[2].clientNets[4].clients[0].ppp[0].inputHook[0]  "thruput (bit/sec)"  ETV
vector 13959  Network.routerNets[2].clientNets[4].clients[0].ppp[0].inputHook[0]  packet/sec  ETV
vector 13978  Network.routerNets[3].clientNets[4].clients[0].ppp[0].inputHook[0]  "thruput (bit/sec)"  ETV
vector 13979  Network.routerNets[3].clientNets[4].clients[0].ppp[0].inputHook[0]  packet/sec  ETV
vector 13998  Network.routerNets[4].clientNets[4].clients[0].ppp[0].inputHook[0]  "thruput (bit/sec)"  ETV
vector 13999  Network.routerNets[4].clientNets[4].clients[0].ppp[0].inputHook[0]  packet/sec  ETV
13900	62397	0	31360
13900	129116	1	32000
13900	195990	2	32000
13900	263270	3	32000
13900	330740	4	32000
13900	398154	5	32000
13900	465748	6	32000
13900	534033	7	32000
13900	602957	8	32000
13900	672252	9	32000
13900	741834	10	32000
13900	812002	11	32000
13900	883441	12	32000
13900	955542	13	32000
13900	1027034	14	32000
13900	1098484	15	32000
13900	1170468	16	32000
13900	1242865	17	32000
13900	1314718	18	32000
13900	1386967	19	32000
13900	1459756	20	32000
13900	1532589	21	32000
13900	1604733	22	32000
13900	1677374	23	32000
13900	1750341	24	32000
13900	1822973	25	32000
13900	1894890	26	32000
13900	1966376	27	32000
13900	2037986	28	32000
13900	2109849	29	32000
13900	2181306	30	32000
13900	2252804	31	32000
13900	2324619	32	32000
13900	2397176	33	32000
13900	2470284	34	32000
13900	2544271	35	32000
13900	2618869	36	32000
13900	2692753	37	32000
13900	2766042	38	32000
13900	2840252	39	32000
13900	2915240	40	32000
13900	2990682	41	32000
13900	3065893	42	32000
13900	3141282	43	32000
13900	3216624	44	32000
13900	3291297	45	32000
13900	3365671	46	32000
13900	3439934	47	32000
13900	3514525	48	32000
13900	3588729	49	32000
13900	3662444	50	32000
13900	3736692	51	32000
13900	3811545	52	32000
13900	3887198	53	32000
13900	3962380	54	32000
13900	4037849	55	32000
13900	4113109	56	32000
13900	4187991	57	32000
13900	4264517	58	32000
13900	4341863	59	32000
13900	4419085	60	32000
13900	4496020	61	32000
13900	4573089	62	32000
13900	4651675	63	32000
13900	4730944	64	32000
13900	4810452	65	32000
13900	4890043	66	32000
13900	4969164	67	32000
13900	5048178	68	32000
13900	5126987	69	32000
13900	5205387	70	32000
13900	5284537	71	32000
13900	5362954	72	32000
13900	5441100	73	32000
13900	5519840	74	32000
13900	5598057	75	32000
13900	5676349	76	32000
13900	5755198	77	32000
13900	5833254	78	32000
13900	5911005	79	32000
13900	5988875	80	32000
13900	6066027	81	32000
13900	6143366	82	32000
13900	6220421	83	32000
13900	6297819	84	32000
13900	6377289	85	32000
13900	6456869	86	32000
13900	6536391	87	32000
13900	6616665	88	32000
13900	6698159	89	32000
13900	6780165	90	32000
13900	6863598	91	32000
13900	6948481	92	32000
13900	7033686	93	32000
13900	7118668	94	32000
13900	7203261	95	32000
13900	7287936	96	32000
13900	7372841	97	32000
13900	7457554	98	32000
13900	7541192	99	32000
13900	7624700	100	32000
13900	7707434	101	32000
13900	7790027	102	32000
13900	7872241	103	32000
13900	7955593	104	32000
13900	8038816	105	32000
13900	8121345	106	32000
13900	8204133	107	32000
13900	8287577	108	32000
13900	8372243	109	32000
13900	8457187	110	32000
13900	8541172	111	32000
13900	8626159	112	32000
13900	8711930	113	32000
13900	8796721	114	32000
13900	8880897	115	32000
13900	8965254	116	32000
13900	9049252	117	32000
13900	9133031	118	32000
13900	9217839	119	32000
13900	9303178	120	32000
13900	9388146	121	32000
13900	9472675	122	32000
13900	9556870	123	32000
13900	9641091	124	32000
13900	9725409	125	32000
13900	9809315	126	32000
13900	9893431	127	32000
13900	9977671	128	32000
13900	10061392	129	32000
13900	10145289	130	32000
13900	10228508	131	32000
13900	10311543	132	32000
13900	10395098	133	32000
13900	10479691	134	32000
13900	10564656	135	32000
13900	10649108	136	32000
13900	10733579	137	32000
13900	10818739	138	32000
13900	10903374	139	32000
13900	10987744	140	32000
13900	11073392	141	32000
13900	11159710	142	32000
13900	11245672	143	32000
13900	11330763	144	32000
13900	11416377	145	32000
13900	11502115	146	32000
13900	11588238	147	32000
13900	11675857	148	32000
13900	11763492	149	32000
13900	11850325	150	32000
13900	11937746	151	32000
13900	12026632	152	32000
13900	12116540	153	32000
13900	12206248	154	32000
13900	12296235	155	32000
13900	12385735	156	32000
13900	12475075	157	32000
13900	12563792	158	32000
13900	12651387	159	32000
13900	12739385	160	32000
13900	12827053	161	32000
13900	12915343	162	32000
13900	13003218	163	32000
13900	13090983	164	32000
13900	13179839	165	32000
13900	13268864	166	32000
13900	13356765	167	32000
13900	13444252	168	32000
13900	13531637	169	32000
13900	13618977	170	32000
13900	13706265	171	32000
13900	13794039	172	32000
13900	13882873	173	32000
13900	13972231	174	32000
13900	14060845	175	32000
13900	14149723	176	32000
13900	14238175	177	32000
13900	14326388	178	32000
13900	14413419	179	32000
13900	14500341	180	32000
13900	14587941	181	32000
13900	14675309	182	32000
13900	14762497	183	32000
13900	14850085	184	32000
13900	14937910	185	32000
13900	15024957	186	32000
13900	15111165	187	32000
13900	15196373	188	32000
13900	15282367	189	32000
13900	15368154	190	32000
13900	15454607	191	32000
13900	15542208	192	32000
13900	15629780	193	32000
13900	15717426	194	32000
13900	15807028	195	32000
13900	15896706	196	32000
13900	15986813	197	32000
13900	16077820	198	32000
13900	16169644	199	32000
13900	16261346	200	32000
13900	16351626	201	32000
13900	16442676	202	32000
13900	16533669	203	32000
13900	16625045	204	32000
13900	16717269	205	32000
13900	16809299	206	32000
13900	16901481	207	32000
13900	16994206	208	32000
13900	17086829	209	32000
13900	17179741	210	32000
13900	17272384	211	32000
13900	17365727	212	32000
13900	17458905	213	32000
13900	17551581	214	32000
13900	17645170	215	32000
13900	17740549	216	32000
13900	17835833	217	32000
13900	17931274	218	32000
13900	18026019	219	32000
13900	18119829	220	32000
13900	18213989	221	32000
13900	18308537	222	32000
13900	18404113	223	32000
13900	18501376	224	32000
13900	18600565	225	32000
13900	18699464	226	32000
13900	18798011	227	32000
13900	18897104	228	32000
13900	18997238	229	32000
13900	19096611	230	32000
13900	19194626	231	32000
13900	19292298	232	32000
13900	19389723	233	32000
13900	19486817	234	32000
13900	19583891	235	32000
13900	19680191	236	32000
13900	19776963	237	32000
13900	19872596	238	32000
13900	19967854	239	32000
13900	20064344	240	32000
13900	20162072	241	32000
13900	20259750	242	32000
13900	20356778	243	32000
13900	20453112	244	32000
13900	20549155	245	32000
13900	20643912	246	32000
13900	20738192	247	32000
13900	20833187	248	32000
13900	20929489	249	32000
13900	21024730	250	32000
13900	21118663	251	32000
13900	21213514	252	32000
13900	21308207	253	32000
13900	21401804	254	32000
13900	21494576	255	32000
13900	21587110	256	32000
13900	21678927	257	32000
13900	21771490	258	32000
13900	21863079	259	32000
13900	21954183	260	32000
13900	22045954	261	32000
13900	22137714	262	32000
13900	22229674	263	32000
13900	22321707	264	32000
13900	22413710	265	32000
13900	22505538	266	32000
13900	22598803	267	32000
13900	22693034	268	32000
13900	22787573	269	32000
13900	22882224	270	32000
13900	22976962	271	32000
13900	23070593	272	32000
13900	23163307	273	32000
13900	23255365	274	32000
13900	23348581	275	32000
13900	23442204	276	32000
13900	23535388	277	32000
13900	23628088	278	32000
13900	23720853	279	32000
13900	23814993	280	32000
13900	23909163	281	32000
13900	24003745	282	32000
13900	24097586	283	32000
13900	24192138	284	32000
13900	24287209	285	32000
13900	24383036	286	32000
13900	24478576	287	32000
13900	24575050	288	32000
13900	24671905	289	32000
13900	24768647	290	32000
13900	24866184	291	32000
13900	24963494	292	32000
13900	25058721	293	32000
13900	25153828	294	32000
13900	25248440	295	32000
13900	25343591	296	32000
13900	25438848	297	32000
13900	25534879	298	32000
13900	25631154	299	32000
13900	25727544	300	32000
13900	25824083	301	32000
13900	25921050	302	32000
13900	26018857	303	32000
13900	26116914	304	32000
13900	26214616	305	32000
13900	26311049	306	32000
13900	26406676	307	32000
13900	26504118	308	32000
13900	26602460	309	32000
13900	26699173	310	32000
13900	26796672	311	32000
13900	26894315	312	32000
13900	26993108	313	32000
13900	27090974	314	32000
13900	27188394	315	32000
13900	27285517	316	32000
13900	27383795	317	32000
13900	27481242	318	32000
13900	27578888	319	32000
13900	27677251	320	32000
13900	27775922	321	32000
13900	27874238	322	32000
13900	27972928	323	32000
13900	28072491	324	32000
13900	28174373	325	32000
13900	28276628	326	32000
13900	28378425	327	32000
13900	28480746	328	32000
13900	28583196	329	32000
13900	28685790	330	32000
13900	28788254	331	32000
13900	28891042	332	32000
13900	28993726	333	32000
13900	29097140	334	32000
13900	29202181	335	32000
13900	29308226	336	32000
13900	29413257	337	32000
13900	29518297	338	32000
13900	29624495	339	32000
13900	29731152	340	32000
13900	29836692	341	32000
13900	29941293	342	32000
13900	30046351	343	32000
13900	30151224	344	32000
13900	30256580	345	32000
13900	30362936	346	32000
13900	30470630	347	32000
13900	30577231	348	32000
13900	30683056	349	32000
13900	30788015	350	32000
13900	30894831	351	32000
13900	31000937	352	32000
13900	31105432	353	32000
13900	31208816	354	32000
13900	31311113	355	32000
13900	31413780	356	32000
13900	31515177	357	32000
13900	31615583	358	32000
13900	31715119	359	32000
13900	31814857	360	32000
13900	31915659	361	32000
13900	32017242	362	32000
13900	32121083	363	32000
13900	32224076	364	32000
13900	32327802	365	32000
13900	32431997	366	32000
13900	32535904	367	32000
13900	32640563	368	32000
13900	32745423	369	32000
13900	32849696	370	32000
13900	32954003	371	32000
13900	33059730	372	32000
13900	33166378	373	32000
13900	33273005	374	32000
13900	33381773	375	32000
13900	33489261	376	32000
13900	33596691	377	32000
13900	33704033	378	32000
13900	33813371	379	32000
13900	33922692	380	32000
13900	34032073	381	32000
13900	34142125	382	32000
13900	34251793	383	32000
13900	34361408	384	32000
13900	34470295	385	32000
13900	34579729	386	32000
13900	34690311	387	32000
13900	34799972	388	32000
13900	34907656	389	32000
13900	35014496	390	32000
13900	35121939	391	32000
13900	35229159	392	32000
13900	35335854	393	32000
13900	35444272	394	32000
13900	35552636	395	32000
13900	35661276	396	32000
13900	35769839	397	32000
13900	35879115	398	32000
13900	35988433	399	32000
13900	36097678	400	32000
13900	36205943	401	32000
13900	36314443	402	32000
13900	36423146	403	32000
13900	36532962	404	32000
13900	36643709	405	32000
13900	36753348	406	32000
13900	36862751	407	32000
13900	36971412	408	32000
13900	37079348	409	32000
13900	37184631	410	32000
13900	37290258	411	32000
13900	37395773	412	32000
13900	37503701	413	32000
13900	37613062	414	32000
13900	37721626	415	32000
13900	37830807	416	32000
13900	37939551	417	32000
13900	38047198	418	32000
13900	38154128	419	32000
13900	38259792	420	32000
13900	38365350	421	32000
13900	38472954	422	32000
13900	38581444	423	32000
13900	38690573	424	32000
13900	38801184	425	32000
13900	38910448	426	32000
13900	39021283	427	32000
13900	39133575	428	32000
13900	39245291	429	32000
13900	39356253	430	32000
13900	39467783	431	32000
13900	39577143	432	32000
13900	39686844	433	32000
13900	39796143	434	32000
13900	39907074	435	32000
13900	40018977	436	32000
13900	40131405	437	32000
13900	40244043	438	32000
13900	40357373	439	32000
13900	40469441	440	32000
13900	40581899	441	32000
13900	40695004	442	32000
13900	40807917	443	32000
13900	40919756	444	32000
13900	41029372	445	32000
13900	41137593	446	32000
13900	41245441	447	32000
13900	41352335	448	32000
13900	41459913	449	32000
13900	41567459	450	32000
13900	41675062	451	32000
13900	41782494	452	32000
13900	41891121	453	32000
13900	42000382	454	32000
13900	42112168	455	32000
13900	42223630	456	32000
13900	42334953	457	32000
13900	42447445	458	32000
13900	42559171	459	32000
13900	42670122	460	32000
13900	42780227	461	32000
13900	42892263	462	32000
13900	43005677	463	32000
13900	43117849	464	32000
13900	43228851	465	32000
13900	43340572	466	32000
13900	43452418	467	32000
13900	43563326	468	32000
13900	43672857	469	32000
13900	43781058	470	32000
13900	43886507	471	32000
13900	43990289	472	32000
13900	44095608	473	32000
13900	44200006	474	32000
13900	44304115	475	32000
13900	44406757	476	32000
13900	44509800	477	34592
13900	44613499	478	33600
13900	44717775	479	33920
13900	44822391	480	33600
13900	44928007	481	34240
13900	45034704	482	33280
13900	45140002	483	32000
13900	45244716	484	32000
13900	45348720	485	32000
13900	45452402	486	33280
13900	45555831	487	33600
13900	45660290	488	33280
13900	45765266	489	33280
13900	45869574	490	32960
13900	45973097	491	32000
13900	46077059	492	32000
13900	46180753	493	32000
13900	46285440	494	32960
13900	46391040	495	32000
13900	46496188	496	32000
13900	46603423	497	32000
13900	46709446	498	32000
13900	46816997	499	32000
13900	46923871	500	32000
13900	47030868	501	32000
13900	47139605	502	32000
13900	47247160	503	32000
13900	47353805	504	32000
13900	47459398	505	32000
13900	47566741	506	32000
13900	47674614	507	32000
13900	47782079	508	32000
13900	47887210	509	32000
13900	47991968	510	32000
13900	48097123	511	32000
13900	48202765	512	32000
13900	48309996	513	34240
13900	48418069	514	33280
13900	48525626	515	33280
13900	48632937	516	33600
13900	48739285	517	33280
13900	48845191	518	33600
13900	48950888	519	33280
13900	49056276	520	33280
13900	49162373	521	33280
13900	49268544	522	32960
13900	49374558	523	32640
13900	49481715	524	32000
13900	49588676	525	32000
13900	49693457	526	32960
13900	49798411	527	33280
13900	49903915	528	33600
13900	50010147	529	33280
13900	50116369	530	33280
13900	50225160	531	33280
13900	50334328	532	32960
13900	50445004	533	32640
13900	50554264	534	32000
13900	50663304	535	32000
13900	50771233	536	32000
13900	50879146	537	32000
13900	50987232	538	32000
13900	51097833	539	32000
13900	51207571	540	32000
13900	51317828	541	33920
13900	51428124	542	33280
13900	51539548	543	33280
13900	51651282	544	33600
13900	51761036	545	33280
13900	51870357	546	32960
13900	51978715	547	32000
13900	52085988	548	32320
13900	52193122	549	32000
13900	52301015	550	32000
13900	52407845	551	32000
13900	52513532	552	32000
13900	52619891	553	32000
13900	52725787	554	32000
13900	52833072	555	32000
13900	52940417	556	32000
13900	53047590	557	32000
13900	53153940	558	32000
13900	53259861	559	32000
13900	53367123	560	32000
13900	53475188	561	32000
13900	53583159	562	34240
13900	53692504	563	33600
13900	53800492	564	33600
13900	53907641	565	33280
13900	54014112	566	33600
13900	54120249	567	33600
13900	54224979	568	32960
13900	54329945	569	32640
13900	54433651	570	32000
13900	54540652	571	32000
13900	54648271	572	33280
13900	54753515	573	33280
13900	54859922	574	32640
13900	54967236	575	32000
13900	55074053	576	32000
13900	55183211	577	32000
13900	55293847	578	32000
13900	55405775	579	32000
13900	55517353	580	32000
13900	55627363	581	32000
13900	55736490	582	32000
13900	55847062	583	32000
13900	55958807	584	32000
13900	56069492	585	32000
13900	56178654	586	32000
13900	56286288	587	32000
13900	56394115	588	32000
13900	56501217	589	32000
13900	56608104	590	32000
13900	56714936	591	32000
13900	56821636	592	32000
13900	56929881	593	32000
13900	57038571	594	32000
13900	57145556	595	32000
13900	57252238	596	32000
13900	57358732	597	32000
13900	57465431	598	32000
13901	62397	0	49
13901	129116	1	50
13901	195990	2	50
13901	263270	3	50
13901	330740	4	50
13901	398154	5	50
13901	465748	6	50
13901	534033	7	50
13901	602957	8	50
13901	672252	9	50
13901	741834	10	50
13901	812002	11	50
13901	883441	12	50
13901	955542	13	50
13901	1027034	14	50
13901	1098484	15	50
13901	1170468	16	50
13901	1242865	17	50
13901	1314718	18	50
13901	1386967	19	50
13901	1459756	20	50
13901	1532589	21	50
13901	1604733	22	50
13901	1677374	23	50
13901	1750341	24	50
13901	1822973	25	50
13901	1894890	26	50
13901	1966376	27	50
13901	2037986	28	50
13901	2109849	29	50
13901	2181306	30	50
13901	2252804	31	50
13901	2324619	32	50
13901	2397176	33	50
13901	2470284	34	50
13901	2544271	35	50
13901	2618869	36	50
13901	2692753	37	50
13901	2766042	38	50
13901	2840252	39	50
13901	2915240	40	50
13901	2990682	41	50
13901	3065893	42	50
13901	3141282	43	50
13901	3216624	44	50
13901	3291297	45	50
13901	3365671	46	50
13901	3439934	47	50
13901	3514525	48	50
13901	3588729	49	50
13901	3662444	50	50
13901	3736692	51	50
13901	3811545	52	50
13901	3887198	53	50
13901	3962380	54	50
13901	4037849	55	50
13901	4113109	56	50
13901	4187991	57	50
13901	4264517	58	50
13901	4341863	59	50
13901	4419085	60	50
13901	4496020	61	50
13901	4573089	62	50
13901	4651675	63	50
13901	4730944	64	50
13901	4810452	65	50
13901	4890043	66	50
13901	4969164	67	50
13901	5048178	68	50
13901	5126987	69	50
13901	5205387	70	50
13901	5284537	71	50
13901	5362954	72	50
13901	5441100	73	50
13901	5519840	74	50
13901	5598057	75	50
13901	5676349	76	50
13901	5755198	77	50
13901	5833254	78	50
13901	5911005	79	50
13901	5988875	80	50
13901	6066027	81	50
13901	6143366	82	50
13901	6220421	83	50
13901	6297819	84	50
13901	6377289	85	50
13901	6456869	86	50
13901	6536391	87	50
13901	6616665	88	50
13901	6698159	89	50
13901	6780165	90	50
13901	6863598	91	50
13901	6948481	92	50
13901	7033686	93	50
13901	7118668	94	50
13901	7203261	95	50
13901	7287936	96	50
13901	7372841	97	50
13901	7457554	98	50
13901	7541192	99	50
13901	7624700	100	50
13901	7707434	101	50
13901	7790027	102	50
13901	7872241	103	50
13901	7955593	104	50
13901	8038816	105	50
13901	8121345	106	50
13901	8204133	107	50
13901	8287577	108	50
13901	8372243	109	50
13901	8457187	110	50
13901	8541172	111	50
13901	8626159	112	50
13901	8711930	113	50
13901	8796721	114	50
13901	8880897	115	50
13901	8965254	116	50
13901	9049252	117	50
13901	9133031	118	50
13901	9217839	119	50
13901	9303178	120	50
13901	9388146	121	50
13901	9472675	122	50
13901	9556870	123	50
13901	9641091	124	50
13901	9725409	125	50
13901	9809315	126	50
13901	9893431	127	50
13901	9977671	128	50
13901	10061392	129	50
13901	10145289	130	50
13901	10228508	131	50
13901	10311543	132	50
13901	10395098	133	50
13901	10479691	134	50
13901	10564656	135	50
13901	10649108	136	50
13901	10733579	137	50
13901	10818739	138	50
13901	10903374	139	50
13901	10987744	140	50
13901	11073392	141	50
13901	11159710	142	50
13901	11245672	143	50
13901	11330763	144	50
13901	11416377	145	50
13901	11502115	146	50
13901	11588238	147	50
13901	11675857	148	50
13901	11763492	149	50
13901	11850325	150	50
13901	11937746	151	50
13901	12026632	152	50
13901	12116540	153	50
13901	12206248	154	50
13901	12296235	155	50
13901	12385735	156	50
13901	12475075	157	50
13901	12563792	158	50
13901	12651387	159	50
13901	12739385	160	50
13901	12827053	161	50
13901	12915343	162	50
13901	13003218	163	50
13901	13090983	164	50
13901	13179839	165	50
13901	13268864	166	50
13901	13356765	167	50
13901	13444252	168	50
13901	13531637	169	50
13901	13618977	170	50
13901	13706265	171	50
13901	13794039	172	50
13901	13882873	173	50
13901	13972231	174	50
13901	14060845	175	50
13901	14149723	176	50
13901	14238175	177	50
13901	14326388	178	50
13901	14413419	179	50
13901	14500341	180	50
13901	14587941	181	50
13901	14675309	182	50
13901	14762497	183	50
13901	14850085	184	50
13901	14937910	185	50
13901	15024957	186	50
13901	15111165	187	50
13901	15196373	188	50
13901	15282367	189	50
13901	15368154	190	50
13901	15454607	191	50
13901	15542208	192	50
13901	15629780	193	50
13901	15717426	194	50
13901	15807028	195	50
13901	15896706	196	50
13901	15986813	197	50
13901	16077820	198	50
13901	16169644	199	50
13901	16261346	200	50
13901	16351626	201	50
13901	16442676	202	50
13901	16533669	203	50
13901	16625045	204	50
13901	16717269	205	50