version 2
run sim_100s-1-20160524-12:08:47-3284
attr configname sim_100s
attr datetime 20160524-12:08:47
attr experiment sim_100s
attr inifile omnetpp.ini
attr iterationvars $simtime=100
attr iterationvars2 "$simtime=100, $repetition=1"
attr measurement $simtime=100
attr network Network
attr processid 3284
attr repetition 1
attr replication #1
attr resultdir results
attr runnumber 1
attr seedset 1
attr simtime 100

vector 27  Network.server.ppp[0].inputHook[0]  "thruput (bit/sec)"  ETV
vector 28  Network.server.ppp[0].inputHook[0]  packet/sec  ETV
vector 25  Network.client.ppp[0].inputHook[0]  "thruput (bit/sec)"  ETV
vector 26  Network.client.ppp[0].inputHook[0]  packet/sec  ETV
25	84	0	548.09894490953
25	504	1.226056	3620.7989034152
25	1348	2.463352	16863.808834409
25	2305	3.469056	15447.874781344
25	3218	4.525512	18772.919268493
25	4175	5.531216	15447.874781344
25	4809	6.587672	11056.457033728
25	5413	7.861136	8793.3687654369
25	6048	9.098432	10603.768217144
25	6520	10.335728	7106.4319789439
25	7073	11.551528	8017.4832861336
25	7775	12.788824	10086.511230942
25	8450	14.02612	14636.513327977
25	9258	15.031824	11813.080715146
25	10128	16.08828	17818.364051451
25	11085	17.093984	15447.874781344
25	11998	18.15044	18772.919268493
25	12955	19.156144	15447.874781344
25	13868	20.2126	18772.919268493
25	14825	21.218304	15447.874781344
25	15738	22.27476	18772.919268493
25	16695	23.280464	15447.874781344
25	17608	24.33692	18772.919268493
25	18565	25.342624	15447.874781344
25	19478	26.39908	18772.919268493
25	20435	27.404784	15447.874781344
25	21314	28.46124	18454.734196145
25	21800	29.466944	7835.1996343574
25	22167	30.692184	6207.083834426
25	22614	31.92948	6207.083834426
25	23214	33.166776	8534.7402723358
25	23803	34.404072	12727.402893893
25	24515	35.409776	10298.583187563
25	25267	36.466232	15909.253617367
25	26159	37.471936	13630.477748245
25	27072	38.528392	18772.919268493
25	27728	39.534096	10446.93284581
25	28332	40.759336	8793.3687654369
25	29085	41.996632	10862.396710246
25	29794	43.233928	15272.883472672
25	30644	44.239632	12721.779231695
25	31544	45.296088	18454.734196145
25	32501	46.301792	15447.874781344
25	33414	47.358248	18772.919268493
25	34371	48.363952	15447.874781344
25	35284	49.420408	18772.919268493
25	36241	50.426112	15447.874781344
25	37154	51.482568	18772.919268493
25	38111	52.488272	15447.874781344
25	39024	53.544728	18772.919268493
25	39981	54.550432	15447.874781344
25	40894	55.606888	18772.919268493
25	41851	56.612592	15447.874781344
25	42764	57.669048	18772.919268493
25	43721	58.674752	15447.874781344
25	44634	59.731208	18772.919268493
25	45591	60.736912	15447.874781344
25	46504	61.793368	18772.919268493
25	47461	62.799072	15447.874781344
25	48374	63.855528	18772.919268493
25	49331	64.861232	15447.874781344
25	50244	65.917688	18772.919268493
25	51201	66.923392	15447.874781344
25	52114	67.979848	18772.919268493
25	53071	68.985552	15447.874781344
25	53882	70.042008	18454.734196145
25	54249	71.047712	5330.5298694761
25	54900	72.12828	9310.6257516391
25	55541	73.365576	14000.143183283
25	56307	74.37128	10904.382198596
25	57122	75.427736	17181.993906756
25	57653	76.43344	9355.6640749587
25	58171	77.562168	9544.9447586322
25	58827	78.567936	10905.042825012
25	59531	79.624328	13362.922662085
25	60377	80.630096	14540.057100016
25	61283	81.686488	16544.570914962
25	62234	82.692256	17266.317806269
25	63153	83.748648	16862.73574025
25	64104	84.754416	17266.317806269
25	65023	85.810808	16862.73574025
25	65974	86.816576	17266.317806269
25	66893	87.872968	16862.73574025
25	67844	88.878736	17266.317806269
25	68763	89.935128	16862.73574025
25	69714	90.940896	17266.317806269
25	70633	91.997288	16862.73574025
25	71584	93.003056	17266.317806269
25	72503	94.059448	16862.73574025
25	73454	95.065216	17266.317806269
25	74373	96.121608	16862.73574025
25	75324	97.127376	17266.317806269
25	76243	98.183768	16862.73574025
26	84	0	1.6312468598498
26	504	1.226056	11.314996573172
26	1348	2.463352	52.699402607527
26	2305	3.469056	48.274608691701
26	3218	4.525512	58.665372714039
26	4175	5.531216	48.274608691701
26	4809	6.587672	34.551428230401
26	5413	7.861136	27.47927739199
26	6048	9.098432	33.136775678577
26	6520	10.335728	22.2075999342
26	7073	11.551528	25.054635269168
26	7775	12.788824	31.520347596695
26	8450	14.02612	45.739104149929
26	9258	15.031824	36.91587723483
26	10128	16.08828	55.682387660783
26	11085	17.093984	48.274608691701
26	11998	18.15044	58.665372714039
26	12955	19.156144	48.274608691701
26	13868	20.2126	58.665372714039
26	14825	21.218304	48.274608691701
26	15738	22.27476	58.665372714039
26	16695	23.280464	48.274608691701
26	17608	24.33692	58.665372714039
26	18565	25.342624	48.274608691701
26	19478	26.39908	58.665372714039
26	20435	27.404784	48.274608691701
26	21314	28.46124	57.671044362954
26	21800	29.466944	24.484998857367
26	22167	30.692184	19.397136982581
26	22614	31.92948	19.397136982581
26	23214	33.166776	26.671063351049
26	23803	34.404072	39.773134043416
26	24515	35.409776	32.183072461134
26	25267	36.466232	49.71641755427
26	26159	37.471936	42.595242963266
26	27072	38.528392	58.665372714039
26	27728	39.534096	32.646665143156
26	28332	40.759336	27.47927739199
26	29085	41.996632	33.944989719517
26	29794	43.233928	47.7277608521
26	30644	44.239632	39.755560099048
26	31544	45.296088	57.671044362954
26	32501	46.301792	48.274608691701
26	33414	47.358248	58.665372714039
26	34371	48.363952	48.274608691701
26	35284	49.420408	58.665372714039
26	36241	50.426112	48.274608691701
26	37154	51.482568	58.665372714039
26	38111	52.488272	48.274608691701
26	39024	53.544728	58.665372714039
26	39981	54.550432	48.274608691701
26	40894	55.606888	58.665372714039
26	41851	56.612592	48.274608691701
26	42764	57.669048	58.665372714039
26	43721	58.674752	48.274608691701
26	44634	59.731208	58.665372714039
26	45591	60.736912	48.274608691701
26	46504	61.793368	58.665372714039
26	47461	62.799072	48.274608691701
26	48374	63.855528	58.665372714039
26	49331	64.861232	48.274608691701
26	50244	65.917688	58.665372714039
26	51201	66.923392	48.274608691701
26	52114	67.979848	58.665372714039
26	53071	68.985552	48.274608691701
26	53882	70.042008	57.671044362954
26	54249	71.047712	16.657905842113
26	54900	72.12828	29.095705473872
26	55541	73.365576	43.750447447758
26	56307	74.37128	34.076194370613
26	57122	75.427736	53.693730958612
26	57653	76.43344	29.236450234246
26	58171	77.562168	29.827952370726
26	58827	78.567936	34.078258828162
26	59531	79.624328	41.759133319016
26	60377	80.630096	45.43767843755
26	61283	81.686488	51.701784109258
26	62234	82.692256	53.95724314459
26	63153	83.748648	52.696049188282
26	64104	84.754416	53.95724314459
26	65023	85.810808	52.696049188282
26	65974	86.816576	53.95724314459
26	66893	87.872968	52.696049188282
26	67844	88.878736	53.95724314459
26	68763	89.935128	52.696049188282
26	69714	90.940896	53.95724314459
26	70633	91.997288	52.696049188282
26	71584	93.003056	53.95724314459
26	72503	94.059448	52.696049188282
26	73454	95.065216	53.95724314459
26	74373	96.121608	52.696049188282
26	75324	97.127376	53.95724314459
26	76243	98.183768	52.696049188282
27	66	0	12354.73052024
27	360	1.02568	135779.95887807
27	1165	2.262976	632392.83129032
27	2119	3.26868	579295.30430042
27	3035	4.325136	703984.47256847
27	3989	5.33084	579295.30430042
27	4710	6.387296	414617.13876482
27	5296	7.66076	329751.32870388
27	5975	8.898056	397641.30814292
27	6430	10.135352	248698.7991446
27	6965	11.351152	300655.62323001
27	7640	12.588448	378244.17116034
27	8310	13.825744	548869.24979915
27	9094	14.831448	442990.52681796
27	9945	15.887904	668188.65192939
27	10899	16.893608	579295.30430042
27	11815	17.950064	703984.47256847
27	12769	18.955768	579295.30430042
27	13685	20.012224	703984.47256847
27	14639	21.017928	579295.30430042
27	15555	22.074384	703984.47256847
27	16509	23.080088	579295.30430042
27	17425	24.136544	703984.47256847
27	18379	25.142248	579295.30430042
27	19295	26.198704	703984.47256847
27	20249	27.204408	579295.30430042
27	21154	28.260864	692052.53235544
27	21718	29.266568	293819.9862884
27	22104	30.491808	215825.47749286
27	22524	31.729104	232765.64379098
27	23097	32.9664	320052.76021259
27	23681	34.203696	477277.608521
27	24370	35.2094	386196.86953361
27	25109	36.265856	596597.01065125
27	25979	37.27156	511142.91555919
27	26889	38.328016	703984.47256847
27	27629	39.33372	391759.98171787
27	28215	40.55896	329751.32870388
27	28941	41.796256	407339.87663421
27	29645	43.033552	572733.1302252
27	30472	44.039256	477066.72118858
27	31361	45.095712	692052.53235544
27	32315	46.101416	579295.30430042
27	33231	47.157872	703984.47256847
27	34185	48.163576	579295.30430042
27	35101	49.220032	703984.47256847
27	36055	50.225736	579295.30430042
27	36971	51.282192	703984.47256847
27	37925	52.287896	579295.30430042
27	38841	53.344352	703984.47256847
27	39795	54.350056	579295.30430042
27	40711	55.406512	703984.47256847
27	41665	56.412216	579295.30430042
27	42581	57.468672	703984.47256847
27	43535	58.474376	579295.30430042
27	44451	59.530832	703984.47256847
27	45405	60.536536	579295.30430042
27	46321	61.592992	703984.47256847
27	47275	62.598696	579295.30430042
27	48191	63.655152	703984.47256847
27	49145	64.660856	579295.30430042
27	50061	65.717312	703984.47256847
27	51015	66.723016	579295.30430042
27	51931	67.779472	703984.47256847
27	52885	68.785176	579295.30430042
27	53770	69.841632	692052.53235544
27	54150	70.847336	199894.87010535
27	54774	71.927904	349148.46568646
27	55410	73.1652	525005.3693731
27	56151	74.170904	408914.33244735
27	56960	75.22736	644324.77150334
27	57557	76.233064	340489.4713341
27	58056	77.361792	348350.71308691
27	58695	78.36756	408939.10593795
27	59378	79.423952	501109.59982819
27	60209	80.42972	545252.1412506
27	61094	81.486112	620421.40931109
27	62054	82.49188	647486.91773508
27	62964	83.548272	632352.59025938
27	63924	84.55404	647486.91773508
27	64834	85.610432	632352.59025938
27	65794	86.6162	647486.91773508
27	66704	87.672592	632352.59025938
27	67664	88.67836	647486.91773508
27	68574	89.734752	632352.59025938
27	69534	90.74052	647486.91773508
27	70444	91.796912	632352.59025938
27	71404	92.80268	647486.91773508
27	72314	93.859072	632352.59025938
27	73274	94.86484	647486.91773508
27	74184	95.921232	632352.59025938
27	75144	96.927	647486.91773508
27	76054	97.983392	632352.59025938
28	66	0	2.9248888542235
28	360	1.02568	11.314996573172
28	1165	2.262976	52.699402607527
28	2119	3.26868	48.274608691701
28	3035	4.325136	58.665372714039
28	3989	5.33084	48.274608691701
28	4710	6.387296	34.551428230401
28	5296	7.66076	27.47927739199
28	5975	8.898056	33.136775678577
28	6430	10.135352	22.2075999342
28	6965	11.351152	25.054635269168
28	7640	12.588448	31.520347596695
28	8310	13.825744	45.739104149929
28	9094	14.831448	36.91587723483
28	9945	15.887904	55.682387660783
28	10899	16.893608	48.274608691701
28	11815	17.950064	58.665372714039
28	12769	18.955768	48.274608691701
28	13685	20.012224	58.665372714039
28	14639	21.017928	48.274608691701
28	15555	22.074384	58.665372714039
28	16509	23.080088	48.274608691701
28	17425	24.136544	58.665372714039
28	18379	25.142248	48.274608691701
28	19295	26.198704	58.665372714039
28	20249	27.204408	48.274608691701
28	21154	28.260864	57.671044362954
28	21718	29.266568	24.484998857367
28	22104	30.491808	19.397136982581
28	22524	31.729104	19.397136982581
28	23097	32.9664	26.671063351049
28	23681	34.203696	39.773134043416
28	24370	35.2094	32.183072461134
28	25109	36.265856	49.71641755427
28	25979	37.27156	42.595242963266
28	26889	38.328016	58.665372714039
28	27629	39.33372	32.646665143156
28	28215	40.55896	27.47927739199
28	28941	41.796256	33.944989719517
28	29645	43.033552	47.7277608521
28	30472	44.039256	39.755560099048
28	31361	45.095712	57.671044362954
28	32315	46.101416	48.274608691701
28	33231	47.157872	58.665372714039
28	34185	48.163576	48.274608691701
28	35101	49.220032	58.665372714039
28	36055	50.225736	48.274608691701
28	36971	51.282192	58.665372714039
28	37925	52.287896	48.274608691701
28	38841	53.344352	58.665372714039
28	39795	54.350056	48.274608691701
28	40711	55.406512	58.665372714039
28	41665	56.412216	48.274608691701
28	42581	57.468672	58.665372714039
28	43535	58.474376	48.274608691701
28	44451	59.530832	58.665372714039
28	45405	60.536536	48.274608691701
28	46321	61.592992	58.665372714039
28	47275	62.598696	48.274608691701
28	48191	63.655152	58.665372714039
28	49145	64.660856	48.274608691701
28	50061	65.717312	58.665372714039
28	51015	66.723016	48.274608691701
28	51931	67.779472	58.665372714039
28	52885	68.785176	48.274608691701
28	53770	69.841632	57.671044362954
28	54150	70.847336	16.657905842113
28	54774	71.927904	29.095705473872
28	55410	73.1652	43.750447447758
28	56151	74.170904	34.076194370613
28	56960	75.22736	53.693730958612
28	57557	76.233064	29.236450234246
28	58056	77.361792	29.827952370726
28	58695	78.36756	34.078258828162
28	59378	79.423952	41.759133319016
28	60209	80.42972	45.43767843755
28	61094	81.486112	51.701784109258
28	62054	82.49188	53.95724314459
28	62964	83.548272	52.696049188282
28	63924	84.55404	53.95724314459
28	64834	85.610432	52.696049188282
28	65794	86.6162	53.95724314459
28	66704	87.672592	52.696049188282
28	67664	88.67836	53.95724314459
28	68574	89.734752	52.696049188282
28	69534	90.74052	53.95724314459
28	70444	91.796912	52.696049188282
28	71404	92.80268	53.95724314459
28	72314	93.859072	52.696049188282
28	73274	94.86484	53.95724314459
28	74184	95.921232	52.696049188282
28	75144	96.927	53.95724314459
28	76054	97.983392	52.696049188282
