version 2
run sim_100s-5-20160524-12:08:51-4460
attr configname sim_100s
attr datetime 20160524-12:08:51
attr experiment sim_100s
attr inifile omnetpp.ini
attr iterationvars $simtime=100
attr iterationvars2 "$simtime=100, $repetition=5"
attr measurement $simtime=100
attr network Network
attr processid 4460
attr repetition 5
attr replication #5
attr resultdir results
attr runnumber 5
attr seedset 5
attr simtime 100

vector 27  Network.server.ppp[0].inputHook[0]  "thruput (bit/sec)"  ETV
vector 28  Network.server.ppp[0].inputHook[0]  packet/sec  ETV
vector 25  Network.client.ppp[0].inputHook[0]  "thruput (bit/sec)"  ETV
vector 26  Network.client.ppp[0].inputHook[0]  packet/sec  ETV
25	84	0	548.09894490953
25	504	1.226056	3620.7989034152
25	1348	2.463352	16863.808834409
25	2305	3.469056	15447.874781344
25	3218	4.525512	18772.919268493
25	4153	5.531216	15447.874781344
25	4549	6.587672	10818.292459809
25	5073	7.593376	6877.184938965
25	5826	8.710112	10862.396710246
25	6535	9.947408	15272.883472672
25	7385	10.953112	12721.779231695
25	8285	12.009568	18454.734196145
25	9242	13.015272	15447.874781344
25	10155	14.071728	18772.919268493
25	11112	15.077432	15447.874781344
25	12025	16.133888	18772.919268493
25	12982	17.139592	15447.874781344
25	13895	18.196048	18772.919268493
25	14852	19.201752	15447.874781344
25	15765	20.258208	18772.919268493
25	16722	21.263912	15447.874781344
25	17635	22.320368	18772.919268493
25	18592	23.326072	15447.874781344
25	19505	24.382528	18772.919268493
25	20462	25.388232	15447.874781344
25	21375	26.444688	18772.919268493
25	22332	27.450392	15447.874781344
25	23245	28.506848	18772.919268493
25	24202	29.512552	15447.874781344
25	25115	30.569008	18772.919268493
25	25754	31.574712	10286.980375607
25	26344	32.787896	8793.3687654369
25	26761	34.025192	7358.6418049697
25	27246	35.242808	6982.9693137293
25	27846	36.480104	8534.7402723358
25	28599	37.7174	10862.396710246
25	29308	38.954696	15272.883472672
25	30158	39.9604	12721.779231695
25	31058	41.016856	18454.734196145
25	32015	42.02256	15447.874781344
25	32928	43.079016	18772.919268493
25	33885	44.08472	15447.874781344
25	34798	45.141176	18772.919268493
25	35755	46.14688	15447.874781344
25	36668	47.203336	18772.919268493
25	37625	48.20904	15447.874781344
25	38538	49.265496	18772.919268493
25	39495	50.2712	15447.874781344
25	40408	51.327656	18772.919268493
25	41365	52.33336	15447.874781344
25	42278	53.389816	18772.919268493
25	43235	54.39552	15447.874781344
25	44148	55.451976	18772.919268493
25	44906	56.45768	11344.229548019
25	45510	57.755256	8793.3687654369
25	46263	58.992552	10862.396710246
25	46972	60.229848	15272.883472672
25	47822	61.235552	12721.779231695
25	48722	62.292008	18454.734196145
25	49679	63.297712	15447.874781344
25	50592	64.354168	18772.919268493
25	51549	65.359872	15447.874781344
25	52462	66.416328	18772.919268493
25	53419	67.422032	15447.874781344
25	54332	68.478488	18772.919268493
25	55289	69.484192	15447.874781344
25	56202	70.540648	18772.919268493
25	57159	71.546352	15447.874781344
25	58072	72.602808	18772.919268493
25	59029	73.608512	15447.874781344
25	59942	74.664968	18772.919268493
25	60899	75.670672	15447.874781344
25	61812	76.727128	18772.919268493
25	62769	77.732832	15447.874781344
25	63682	78.789288	18772.919268493
25	64639	79.794992	15447.874781344
25	65552	80.851448	18772.919268493
25	66509	81.857152	15447.874781344
25	67422	82.913608	18772.919268493
25	68379	83.919312	15447.874781344
25	69292	84.975768	18772.919268493
25	70249	85.981472	15447.874781344
25	71162	87.037928	18772.919268493
25	72119	88.043632	15447.874781344
25	73023	89.100088	18772.919268493
25	73467	90.105792	8086.0112006229
25	74071	91.174304	8793.3687654369
25	74824	92.4116	10862.396710246
25	75533	93.648896	15272.883472672
25	76374	94.6546	12721.779231695
25	76906	95.711056	11671.299353471
25	77462	96.752928	9775.6054210176
25	78060	97.833168	11132.846668893
25	78736	98.8392	11816.749484911
26	84	0	1.6312468598498
26	504	1.226056	11.314996573172
26	1348	2.463352	52.699402607527
26	2305	3.469056	48.274608691701
26	3218	4.525512	58.665372714039
26	4153	5.531216	48.274608691701
26	4549	6.587672	33.807163936904
26	5073	7.593376	21.491202934266
26	5826	8.710112	33.944989719517
26	6535	9.947408	47.7277608521
26	7385	10.953112	39.755560099048
26	8285	12.009568	57.671044362954
26	9242	13.015272	48.274608691701
26	10155	14.071728	58.665372714039
26	11112	15.077432	48.274608691701
26	12025	16.133888	58.665372714039
26	12982	17.139592	48.274608691701
26	13895	18.196048	58.665372714039
26	14852	19.201752	48.274608691701
26	15765	20.258208	58.665372714039
26	16722	21.263912	48.274608691701
26	17635	22.320368	58.665372714039
26	18592	23.326072	48.274608691701
26	19505	24.382528	58.665372714039
26	20462	25.388232	48.274608691701
26	21375	26.444688	58.665372714039
26	22332	27.450392	48.274608691701
26	23245	28.506848	58.665372714039
26	24202	29.512552	48.274608691701
26	25115	30.569008	58.665372714039
26	25754	31.574712	32.146813673771
26	26344	32.787896	27.47927739199
26	26761	34.025192	22.99575564053
26	27246	35.242808	21.821779105404
26	27846	36.480104	26.671063351049
26	28599	37.7174	33.944989719517
26	29308	38.954696	47.7277608521
26	30158	39.9604	39.755560099048
26	31058	41.016856	57.671044362954
26	32015	42.02256	48.274608691701
26	32928	43.079016	58.665372714039
26	33885	44.08472	48.274608691701
26	34798	45.141176	58.665372714039
26	35755	46.14688	48.274608691701
26	36668	47.203336	58.665372714039
26	37625	48.20904	48.274608691701
26	38538	49.265496	58.665372714039
26	39495	50.2712	48.274608691701
26	40408	51.327656	58.665372714039
26	41365	52.33336	48.274608691701
26	42278	53.389816	58.665372714039
26	43235	54.39552	48.274608691701
26	44148	55.451976	58.665372714039
26	44906	56.45768	35.450717337559
26	45510	57.755256	27.47927739199
26	46263	58.992552	33.944989719517
26	46972	60.229848	47.7277608521
26	47822	61.235552	39.755560099048
26	48722	62.292008	57.671044362954
26	49679	63.297712	48.274608691701
26	50592	64.354168	58.665372714039
26	51549	65.359872	48.274608691701
26	52462	66.416328	58.665372714039
26	53419	67.422032	48.274608691701
26	54332	68.478488	58.665372714039
26	55289	69.484192	48.274608691701
26	56202	70.540648	58.665372714039
26	57159	71.546352	48.274608691701
26	58072	72.602808	58.665372714039
26	59029	73.608512	48.274608691701
26	59942	74.664968	58.665372714039
26	60899	75.670672	48.274608691701
26	61812	76.727128	58.665372714039
26	62769	77.732832	48.274608691701
26	63682	78.789288	58.665372714039
26	64639	79.794992	48.274608691701
26	65552	80.851448	58.665372714039
26	66509	81.857152	48.274608691701
26	67422	82.913608	58.665372714039
26	68379	83.919312	48.274608691701
26	69292	84.975768	58.665372714039
26	70249	85.981472	48.274608691701
26	71162	87.037928	58.665372714039
26	72119	88.043632	48.274608691701
26	73023	89.100088	58.665372714039
26	73467	90.105792	25.268785001947
26	74071	91.174304	27.47927739199
26	74824	92.4116	33.944989719517
26	75533	93.648896	47.7277608521
26	76374	94.6546	39.755560099048
26	76906	95.711056	36.472810479598
26	77462	96.752928	30.54876694068
26	78060	97.833168	34.790145840291
26	78736	98.8392	36.927342140347
27	66	0	12354.73052024
27	360	1.02568	135779.95887807
27	1165	2.262976	632392.83129032
27	2119	3.26868	579295.30430042
27	3035	4.325136	703984.47256847
27	3989	5.33084	579295.30430042
27	4460	6.387296	405685.96724285
27	4956	7.393	257894.43521119
27	5682	8.509736	407339.87663421
27	6386	9.747032	572733.1302252
27	7213	10.752736	477066.72118858
27	8102	11.809192	692052.53235544
27	9056	12.814896	579295.30430042
27	9972	13.871352	703984.47256847
27	10926	14.877056	579295.30430042
27	11842	15.933512	703984.47256847
27	12796	16.939216	579295.30430042
27	13712	17.995672	703984.47256847
27	14666	19.001376	579295.30430042
27	15582	20.057832	703984.47256847
27	16536	21.063536	579295.30430042
27	17452	22.119992	703984.47256847
27	18406	23.125696	579295.30430042
27	19322	24.182152	703984.47256847
27	20276	25.187856	579295.30430042
27	21192	26.244312	703984.47256847
27	22146	27.250016	579295.30430042
27	23062	28.306472	703984.47256847
27	24016	29.312176	579295.30430042
27	24932	30.368632	703984.47256847
27	25655	31.374336	385761.76408525
27	26241	32.58752	329751.32870388
27	26689	33.824816	267190.96989527
27	27156	35.042432	254574.49147173
27	27729	36.279728	320052.76021259
27	28455	37.517024	407339.87663421
27	29159	38.75432	572733.1302252
27	29986	39.760024	477066.72118858
27	30875	40.81648	692052.53235544
27	31829	41.822184	579295.30430042
27	32745	42.87864	703984.47256847
27	33699	43.884344	579295.30430042
27	34615	44.9408	703984.47256847
27	35569	45.946504	579295.30430042
27	36485	47.00296	703984.47256847
27	37439	48.008664	579295.30430042
27	38355	49.06512	703984.47256847
27	39309	50.070824	579295.30430042
27	40225	51.12728	703984.47256847
27	41179	52.132984	579295.30430042
27	42095	53.18944	703984.47256847
27	43049	54.195144	579295.30430042
27	43965	55.2516	703984.47256847
27	44807	56.257304	425408.6080507
27	45393	57.55488	329751.32870388
27	46119	58.792176	407339.87663421
27	46823	60.029472	572733.1302252
27	47650	61.035176	477066.72118858
27	48539	62.091632	692052.53235544
27	49493	63.097336	579295.30430042
27	50409	64.153792	703984.47256847
27	51363	65.159496	579295.30430042
27	52279	66.215952	703984.47256847
27	53233	67.221656	579295.30430042
27	54149	68.278112	703984.47256847
27	55103	69.283816	579295.30430042
27	56019	70.340272	703984.47256847
27	56973	71.345976	579295.30430042
27	57889	72.402432	703984.47256847
27	58843	73.408136	579295.30430042
27	59759	74.464592	703984.47256847
27	60713	75.470296	579295.30430042
27	61629	76.526752	703984.47256847
27	62583	77.532456	579295.30430042
27	63499	78.588912	703984.47256847
27	64453	79.594616	579295.30430042
27	65369	80.651072	703984.47256847
27	66323	81.656776	579295.30430042
27	67239	82.713232	703984.47256847
27	68193	83.718936	579295.30430042
27	69109	84.775392	703984.47256847
27	70063	85.781096	579295.30430042
27	70979	86.837552	703984.47256847
27	71933	87.843256	579295.30430042
27	72849	88.899712	703984.47256847
27	73368	89.905416	303225.42002336
27	73954	90.973928	329751.32870388
27	74680	92.211224	407339.87663421
27	75384	93.44852	572733.1302252
27	76211	94.454224	477066.72118858
27	76805	95.51068	426463.13558671
27	77357	96.552552	357424.2760868
27	77929	97.632792	417481.7500835
27	78623	98.638824	443128.10568416
28	66	0	2.9248888542235
28	360	1.02568	11.314996573172
28	1165	2.262976	52.699402607527
28	2119	3.26868	48.274608691701
28	3035	4.325136	58.665372714039
28	3989	5.33084	48.274608691701
28	4460	6.387296	33.807163936904
28	4956	7.393	21.491202934266
28	5682	8.509736	33.944989719517
28	6386	9.747032	47.7277608521
28	7213	10.752736	39.755560099048
28	8102	11.809192	57.671044362954
28	9056	12.814896	48.274608691701
28	9972	13.871352	58.665372714039
28	10926	14.877056	48.274608691701
28	11842	15.933512	58.665372714039
28	12796	16.939216	48.274608691701
28	13712	17.995672	58.665372714039
28	14666	19.001376	48.274608691701
28	15582	20.057832	58.665372714039
28	16536	21.063536	48.274608691701
28	17452	22.119992	58.665372714039
28	18406	23.125696	48.274608691701
28	19322	24.182152	58.665372714039
28	20276	25.187856	48.274608691701
28	21192	26.244312	58.665372714039
28	22146	27.250016	48.274608691701
28	23062	28.306472	58.665372714039
28	24016	29.312176	48.274608691701
28	24932	30.368632	58.665372714039
28	25655	31.374336	32.146813673771
28	26241	32.58752	27.47927739199
28	26689	33.824816	22.99575564053
28	27156	35.042432	21.821779105404
28	27729	36.279728	26.671063351049
28	28455	37.517024	33.944989719517
28	29159	38.75432	47.7277608521
28	29986	39.760024	39.755560099048
28	30875	40.81648	57.671044362954
28	31829	41.822184	48.274608691701
28	32745	42.87864	58.665372714039
28	33699	43.884344	48.274608691701
28	34615	44.9408	58.665372714039
28	35569	45.946504	48.274608691701
28	36485	47.00296	58.665372714039
28	37439	48.008664	48.274608691701
28	38355	49.06512	58.665372714039
28	39309	50.070824	48.274608691701
28	40225	51.12728	58.665372714039
28	41179	52.132984	48.274608691701
28	42095	53.18944	58.665372714039
28	43049	54.195144	48.274608691701
28	43965	55.2516	58.665372714039
28	44807	56.257304	35.450717337559
28	45393	57.55488	27.47927739199
28	46119	58.792176	33.944989719517
28	46823	60.029472	47.7277608521
28	47650	61.035176	39.755560099048
28	48539	62.091632	57.671044362954
28	49493	63.097336	48.274608691701
28	50409	64.153792	58.665372714039
28	51363	65.159496	48.274608691701
28	52279	66.215952	58.665372714039
28	53233	67.221656	48.274608691701
28	54149	68.278112	58.665372714039
28	55103	69.283816	48.274608691701
28	56019	70.340272	58.665372714039
28	56973	71.345976	48.274608691701
28	57889	72.402432	58.665372714039
28	58843	73.408136	48.274608691701
28	59759	74.464592	58.665372714039
28	60713	75.470296	48.274608691701
28	61629	76.526752	58.665372714039
28	62583	77.532456	48.274608691701
28	63499	78.588912	58.665372714039
28	64453	79.594616	48.274608691701
28	65369	80.651072	58.665372714039
28	66323	81.656776	48.274608691701
28	67239	82.713232	58.665372714039
28	68193	83.718936	48.274608691701
28	69109	84.775392	58.665372714039
28	70063	85.781096	48.274608691701
28	70979	86.837552	58.665372714039
28	71933	87.843256	48.274608691701
28	72849	88.899712	58.665372714039
28	73368	89.905416	25.268785001947
28	73954	90.973928	27.47927739199
28	74680	92.211224	33.944989719517
28	75384	93.44852	47.7277608521
28	76211	94.454224	39.755560099048
28	76805	95.51068	36.472810479598
28	77357	96.552552	30.54876694068
28	77929	97.632792	34.790145840291
28	78623	98.638824	36.927342140347
