version 2
run sim_100s-3-20160524-12:08:48-980
attr configname sim_100s
attr datetime 20160524-12:08:48
attr experiment sim_100s
attr inifile omnetpp.ini
attr iterationvars $simtime=100
attr iterationvars2 "$simtime=100, $repetition=3"
attr measurement $simtime=100
attr network Network
attr processid 980
attr repetition 3
attr replication #3
attr resultdir results
attr runnumber 3
attr seedset 3
attr simtime 100

vector 27  Network.server.ppp[0].inputHook[0]  "thruput (bit/sec)"  ETV
vector 28  Network.server.ppp[0].inputHook[0]  packet/sec  ETV
vector 25  Network.client.ppp[0].inputHook[0]  "thruput (bit/sec)"  ETV
vector 26  Network.client.ppp[0].inputHook[0]  packet/sec  ETV
25	84	0	548.09894490953
25	504	1.226056	3620.7989034152
25	1348	2.463352	16863.808834409
25	2305	3.469056	15447.874781344
25	3218	4.525512	18772.919268493
25	4124	5.531216	15144.975275828
25	4335	6.587672	6968.1858763583
25	4638	7.689824	3620.7989034152
25	5085	8.92712	6207.083834426
25	5685	10.164416	8534.7402723358
25	6408	11.401712	10603.768217144
25	7083	12.639008	14636.513327977
25	7891	13.644712	11813.080715146
25	8761	14.701168	17818.364051451
25	9718	15.706872	15447.874781344
25	10631	16.763328	18772.919268493
25	11588	17.769032	15447.874781344
25	12501	18.825488	18772.919268493
25	13458	19.831192	15447.874781344
25	14371	20.887648	18772.919268493
25	15328	21.893352	15447.874781344
25	16241	22.949808	18772.919268493
25	17198	23.955512	15447.874781344
25	18111	25.011968	18772.919268493
25	19068	26.017672	15447.874781344
25	19981	27.074128	18772.919268493
25	20938	28.079832	15447.874781344
25	21851	29.136288	18772.919268493
25	22808	30.141992	15447.874781344
25	23721	31.198448	18772.919268493
25	24678	32.204152	15447.874781344
25	25591	33.260608	18772.919268493
25	26548	34.266312	15447.874781344
25	27461	35.322768	18772.919268493
25	28418	36.328472	15447.874781344
25	29331	37.384928	18772.919268493
25	30288	38.390632	15447.874781344
25	31002	39.447088	17401.166810382
25	31152	40.476904	1522.1086278191
25	31497	41.738312	4655.3128758195
25	31982	42.975608	6982.9693137293
25	32574	44.212904	8534.7402723358
25	33070	45.4502	8371.5974530049
25	33555	46.711608	6982.9693137293
25	34155	47.948904	8534.7402723358
25	34908	49.1862	10862.396710246
25	35617	50.423496	15272.883472672
25	36467	51.4292	12721.779231695
25	37367	52.485656	18454.734196145
25	38324	53.49136	15447.874781344
25	39237	54.547816	18772.919268493
25	40194	55.55352	15447.874781344
25	41107	56.609976	18772.919268493
25	42064	57.61568	15447.874781344
25	42977	58.672136	18772.919268493
25	43934	59.67784	15447.874781344
25	44847	60.734296	18772.919268493
25	45804	61.74	15447.874781344
25	46717	62.796456	18772.919268493
25	47674	63.80216	15447.874781344
25	48587	64.858616	18772.919268493
25	49544	65.86432	15447.874781344
25	50457	66.920776	18772.919268493
25	51414	67.92648	15447.874781344
25	52327	68.982936	18772.919268493
25	53265	69.98864	15447.874781344
25	53685	71.045096	10818.292459809
25	54233	72.0508	7494.1191981292
25	54986	73.203704	10862.396710246
25	55695	74.441	15272.883472672
25	56545	75.446704	12721.779231695
25	57445	76.50316	18454.734196145
25	58402	77.508864	15447.874781344
25	59315	78.56532	18772.919268493
25	60272	79.571024	15447.874781344
25	61185	80.62748	18772.919268493
25	62142	81.633184	15447.874781344
25	63055	82.68964	18772.919268493
25	64012	83.695344	15447.874781344
25	64925	84.7518	18772.919268493
25	65882	85.757504	15447.874781344
25	66795	86.81396	18772.919268493
25	67752	87.819664	15447.874781344
25	68665	88.87612	18772.919268493
25	69134	89.881824	8493.3151752112
25	69738	90.974448	8793.3687654369
25	70491	92.211744	10862.396710246
25	71200	93.44904	15272.883472672
25	72050	94.454744	12721.779231695
25	72950	95.5112	18454.734196145
25	73907	96.516904	15447.874781344
25	74820	97.57336	18772.919268493
25	75777	98.579064	15447.874781344
26	84	0	1.6312468598498
26	504	1.226056	11.314996573172
26	1348	2.463352	52.699402607527
26	2305	3.469056	48.274608691701
26	3218	4.525512	58.665372714039
26	4124	5.531216	47.328047736962
26	4335	6.587672	21.77558086362
26	4638	7.689824	11.314996573172
26	5085	8.92712	19.397136982581
26	5685	10.164416	26.671063351049
26	6408	11.401712	33.136775678577
26	7083	12.639008	45.739104149929
26	7891	13.644712	36.91587723483
26	8761	14.701168	55.682387660783
26	9718	15.706872	48.274608691701
26	10631	16.763328	58.665372714039
26	11588	17.769032	48.274608691701
26	12501	18.825488	58.665372714039
26	13458	19.831192	48.274608691701
26	14371	20.887648	58.665372714039
26	15328	21.893352	48.274608691701
26	16241	22.949808	58.665372714039
26	17198	23.955512	48.274608691701
26	18111	25.011968	58.665372714039
26	19068	26.017672	48.274608691701
26	19981	27.074128	58.665372714039
26	20938	28.079832	48.274608691701
26	21851	29.136288	58.665372714039
26	22808	30.141992	48.274608691701
26	23721	31.198448	58.665372714039
26	24678	32.204152	48.274608691701
26	25591	33.260608	58.665372714039
26	26548	34.266312	48.274608691701
26	27461	35.322768	58.665372714039
26	28418	36.328472	48.274608691701
26	29331	37.384928	58.665372714039
26	30288	38.390632	48.274608691701
26	31002	39.447088	54.378646282443
26	31152	40.476904	4.7565894619346
26	31497	41.738312	14.547852736936
26	31982	42.975608	21.821779105404
26	32574	44.212904	26.671063351049
26	33070	45.4502	26.16124204064
26	33555	46.711608	21.821779105404
26	34155	47.948904	26.671063351049
26	34908	49.1862	33.944989719517
26	35617	50.423496	47.7277608521
26	36467	51.4292	39.755560099048
26	37367	52.485656	57.671044362954
26	38324	53.49136	48.274608691701
26	39237	54.547816	58.665372714039
26	40194	55.55352	48.274608691701
26	41107	56.609976	58.665372714039
26	42064	57.61568	48.274608691701
26	42977	58.672136	58.665372714039
26	43934	59.67784	48.274608691701
26	44847	60.734296	58.665372714039
26	45804	61.74	48.274608691701
26	46717	62.796456	58.665372714039
26	47674	63.80216	48.274608691701
26	48587	64.858616	58.665372714039
26	49544	65.86432	48.274608691701
26	50457	66.920776	58.665372714039
26	51414	67.92648	48.274608691701
26	52327	68.982936	58.665372714039
26	53265	69.98864	48.274608691701
26	53685	71.045096	33.807163936904
26	54233	72.0508	23.419122494154
26	54986	73.203704	33.944989719517
26	55695	74.441	47.7277608521
26	56545	75.446704	39.755560099048
26	57445	76.50316	57.671044362954
26	58402	77.508864	48.274608691701
26	59315	78.56532	58.665372714039
26	60272	79.571024	48.274608691701
26	61185	80.62748	58.665372714039
26	62142	81.633184	48.274608691701
26	63055	82.68964	58.665372714039
26	64012	83.695344	48.274608691701
26	64925	84.7518	58.665372714039
26	65882	85.757504	48.274608691701
26	66795	86.81396	58.665372714039
26	67752	87.819664	48.274608691701
26	68665	88.87612	58.665372714039
26	69134	89.881824	26.541609922535
26	69738	90.974448	27.47927739199
26	70491	92.211744	33.944989719517
26	71200	93.44904	47.7277608521
26	72050	94.454744	39.755560099048
26	72950	95.5112	57.671044362954
26	73907	96.516904	48.274608691701
26	74820	97.57336	58.665372714039
26	75777	98.579064	48.274608691701
27	66	0	12354.73052024
27	360	1.02568	135779.95887807
27	1165	2.262976	632392.83129032
27	2119	3.26868	579295.30430042
27	3035	4.325136	703984.47256847
27	3978	5.33084	567936.57284354
27	4317	6.387296	261306.97036343
27	4575	7.489448	128053.43264667
27	4995	8.726744	232765.64379098
27	5568	9.96404	320052.76021259
27	6273	11.201336	397641.30814292
27	6943	12.438632	548869.24979915
27	7727	13.444336	442990.52681796
27	8578	14.500792	668188.65192939
27	9532	15.506496	579295.30430042
27	10448	16.562952	703984.47256847
27	11402	17.568656	579295.30430042
27	12318	18.625112	703984.47256847
27	13272	19.630816	579295.30430042
27	14188	20.687272	703984.47256847
27	15142	21.692976	579295.30430042
27	16058	22.749432	703984.47256847
27	17012	23.755136	579295.30430042
27	17928	24.811592	703984.47256847
27	18882	25.817296	579295.30430042
27	19798	26.873752	703984.47256847
27	20752	27.879456	579295.30430042
27	21668	28.935912	703984.47256847
27	22622	29.941616	579295.30430042
27	23538	30.998072	703984.47256847
27	24492	32.003776	579295.30430042
27	25408	33.060232	703984.47256847
27	26362	34.065936	579295.30430042
27	27278	35.122392	703984.47256847
27	28232	36.128096	579295.30430042
27	29148	37.184552	703984.47256847
27	30102	38.190256	579295.30430042
27	30945	39.246712	652543.75538931
27	31107	40.276528	57079.073543215
27	31425	41.537936	174574.23284323
27	31892	42.775232	261861.34926485
27	32465	44.012528	320052.76021259
27	32998	45.249824	307034.67870824
27	33465	46.511232	256126.26243033
27	34038	47.748528	320052.76021259
27	34764	48.985824	407339.87663421
27	35468	50.22312	572733.1302252
27	36295	51.228824	477066.72118858
27	37184	52.28528	692052.53235544
27	38138	53.290984	579295.30430042
27	39054	54.34744	703984.47256847
27	40008	55.353144	579295.30430042
27	40924	56.4096	703984.47256847
27	41878	57.415304	579295.30430042
27	42794	58.47176	703984.47256847
27	43748	59.477464	579295.30430042
27	44664	60.53392	703984.47256847
27	45618	61.539624	579295.30430042
27	46534	62.59608	703984.47256847
27	47488	63.601784	579295.30430042
27	48404	64.65824	703984.47256847
27	49358	65.663944	579295.30430042
27	50274	66.7204	703984.47256847
27	51228	67.726104	579295.30430042
27	52144	68.78256	703984.47256847
27	53098	69.788264	579295.30430042
27	53593	70.84472	405685.96724285
27	54116	71.850424	281029.46992985
27	54842	73.003328	407339.87663421
27	55546	74.240624	572733.1302252
27	56373	75.246328	477066.72118858
27	57262	76.302784	692052.53235544
27	58216	77.308488	579295.30430042
27	59132	78.364944	703984.47256847
27	60086	79.370648	579295.30430042
27	61002	80.427104	703984.47256847
27	61956	81.432808	579295.30430042
27	62872	82.489264	703984.47256847
27	63826	83.494968	579295.30430042
27	64742	84.551424	703984.47256847
27	65696	85.557128	579295.30430042
27	66612	86.613584	703984.47256847
27	67566	87.619288	579295.30430042
27	68482	88.675744	703984.47256847
27	69035	89.681448	318499.31907042
27	69621	90.774072	329751.32870388
27	70347	92.011368	407339.87663421
27	71051	93.248664	572733.1302252
27	71878	94.254368	477066.72118858
27	72767	95.310824	692052.53235544
27	73721	96.316528	579295.30430042
27	74637	97.372984	703984.47256847
27	75591	98.378688	579295.30430042
28	66	0	2.9248888542235
28	360	1.02568	11.314996573172
28	1165	2.262976	52.699402607527
28	2119	3.26868	48.274608691701
28	3035	4.325136	58.665372714039
28	3978	5.33084	47.328047736962
28	4317	6.387296	21.77558086362
28	4575	7.489448	11.314996573172
28	4995	8.726744	19.397136982581
28	5568	9.96404	26.671063351049
28	6273	11.201336	33.136775678577
28	6943	12.438632	45.739104149929
28	7727	13.444336	36.91587723483
28	8578	14.500792	55.682387660783
28	9532	15.506496	48.274608691701
28	10448	16.562952	58.665372714039
28	11402	17.568656	48.274608691701
28	12318	18.625112	58.665372714039
28	13272	19.630816	48.274608691701
28	14188	20.687272	58.665372714039
28	15142	21.692976	48.274608691701
28	16058	22.749432	58.665372714039
28	17012	23.755136	48.274608691701
28	17928	24.811592	58.665372714039
28	18882	25.817296	48.274608691701
28	19798	26.873752	58.665372714039
28	20752	27.879456	48.274608691701
28	21668	28.935912	58.665372714039
28	22622	29.941616	48.274608691701
28	23538	30.998072	58.665372714039
28	24492	32.003776	48.274608691701
28	25408	33.060232	58.665372714039
28	26362	34.065936	48.274608691701
28	27278	35.122392	58.665372714039
28	28232	36.128096	48.274608691701
28	29148	37.184552	58.665372714039
28	30102	38.190256	48.274608691701
28	30945	39.246712	54.378646282443
28	31107	40.276528	4.7565894619346
28	31425	41.537936	14.547852736936
28	31892	42.775232	21.821779105404
28	32465	44.012528	26.671063351049
28	32998	45.249824	26.16124204064
28	33465	46.511232	21.821779105404
28	34038	47.748528	26.671063351049
28	34764	48.985824	33.944989719517
28	35468	50.22312	47.7277608521
28	36295	51.228824	39.755560099048
28	37184	52.28528	57.671044362954
28	38138	53.290984	48.274608691701
28	39054	54.34744	58.665372714039
28	40008	55.353144	48.274608691701
28	40924	56.4096	58.665372714039
28	41878	57.415304	48.274608691701
28	42794	58.47176	58.665372714039
28	43748	59.477464	48.274608691701
28	44664	60.53392	58.665372714039
28	45618	61.539624	48.274608691701
28	46534	62.59608	58.665372714039
28	47488	63.601784	48.274608691701
28	48404	64.65824	58.665372714039
28	49358	65.663944	48.274608691701
28	50274	66.7204	58.665372714039
28	51228	67.726104	48.274608691701
28	52144	68.78256	58.665372714039
28	53098	69.788264	48.274608691701
28	53593	70.84472	33.807163936904
28	54116	71.850424	23.419122494154
28	54842	73.003328	33.944989719517
28	55546	74.240624	47.7277608521
28	56373	75.246328	39.755560099048
28	57262	76.302784	57.671044362954
28	58216	77.308488	48.274608691701
28	59132	78.364944	58.665372714039
28	60086	79.370648	48.274608691701
28	61002	80.427104	58.665372714039
28	61956	81.432808	48.274608691701
28	62872	82.489264	58.665372714039
28	63826	83.494968	48.274608691701
28	64742	84.551424	58.665372714039
28	65696	85.557128	48.274608691701
28	66612	86.613584	58.665372714039
28	67566	87.619288	48.274608691701
28	68482	88.675744	58.665372714039
28	69035	89.681448	26.541609922535
28	69621	90.774072	27.47927739199
28	70347	92.011368	33.944989719517
28	71051	93.248664	47.7277608521
28	71878	94.254368	39.755560099048
28	72767	95.310824	57.671044362954
28	73721	96.316528	48.274608691701
28	74637	97.372984	58.665372714039
28	75591	98.378688	48.274608691701
