version 2
run sim_100s-7-20160524-12:08:52-2816
attr configname sim_100s
attr datetime 20160524-12:08:52
attr experiment sim_100s
attr inifile omnetpp.ini
attr iterationvars $simtime=100
attr iterationvars2 "$simtime=100, $repetition=7"
attr measurement $simtime=100
attr network Network
attr processid 2816
attr repetition 7
attr replication #7
attr resultdir results
attr runnumber 7
attr seedset 7
attr simtime 100

vector 27  Network.server.ppp[0].inputHook[0]  "thruput (bit/sec)"  ETV
vector 28  Network.server.ppp[0].inputHook[0]  packet/sec  ETV
vector 25  Network.client.ppp[0].inputHook[0]  "thruput (bit/sec)"  ETV
vector 26  Network.client.ppp[0].inputHook[0]  packet/sec  ETV
25	84	0	548.09894490953
25	504	1.226056	3620.7989034152
25	1348	2.463352	16863.808834409
25	2305	3.469056	15447.874781344
25	3218	4.525512	18772.919268493
25	4175	5.531216	15447.874781344
25	5088	6.587672	18772.919268493
25	6045	7.593376	15447.874781344
25	6958	8.649832	18772.919268493
25	7915	9.655536	15447.874781344
25	8828	10.711992	18772.919268493
25	9399	11.717696	9614.0640021975
25	10003	12.882656	8793.3687654369
25	10756	14.119952	10862.396710246
25	11372	15.357248	14954.698400325
25	11754	16.362952	5091.1922374292
25	12354	17.431464	8534.7402723358
25	13107	18.66876	10862.396710246
25	13814	19.906056	15272.883472672
25	14666	20.91176	12721.779231695
25	15566	21.968216	18454.734196145
25	16523	22.97392	15447.874781344
25	17436	24.030376	18772.919268493
25	18393	25.03608	15447.874781344
25	19306	26.092536	18772.919268493
25	20263	27.09824	15447.874781344
25	21176	28.154696	18772.919268493
25	22133	29.1604	15447.874781344
25	23046	30.216856	18772.919268493
25	24003	31.22256	15447.874781344
25	24916	32.279016	18772.919268493
25	25555	33.28472	10286.980375607
25	26159	34.497904	8793.3687654369
25	26912	35.7352	10862.396710246
25	27621	36.972496	15272.883472672
25	28471	37.9782	12721.779231695
25	29177	39.034656	11516.452932497
25	29781	40.3684	8793.3687654369
25	30534	41.605696	10862.396710246
25	31243	42.842992	15272.883472672
25	32093	43.848696	12721.779231695
25	32993	44.905152	18454.734196145
25	33950	45.910856	15447.874781344
25	34863	46.967312	18772.919268493
25	35820	47.973016	15447.874781344
25	36733	49.029472	18772.919268493
25	37338	50.035176	9957.3448874416
25	37942	51.224248	8793.3687654369
25	38695	52.461544	10862.396710246
25	39404	53.69884	15272.883472672
25	40254	54.704544	12721.779231695
25	41154	55.761	18454.734196145
25	42111	56.766704	15447.874781344
25	42950	57.82316	18454.734196145
25	43357	58.828864	6236.7557530528
25	44008	59.957656	9310.6257516391
25	44649	61.194952	14000.143183283
25	45415	62.200656	10904.382198596
25	46242	63.257112	17181.993906756
25	47195	64.262816	15144.975275828
25	48108	65.319272	18772.919268493
25	49065	66.324976	15447.874781344
25	49978	67.381432	18772.919268493
25	50935	68.387136	15447.874781344
25	51848	69.443592	18772.919268493
25	52805	70.449296	15447.874781344
25	53718	71.505752	18772.919268493
25	54675	72.511456	15447.874781344
25	55588	73.567912	18772.919268493
25	56545	74.573616	15447.874781344
25	57458	75.630072	18772.919268493
25	58415	76.635776	15447.874781344
25	59328	77.692232	18772.919268493
25	60285	78.697936	15447.874781344
25	61198	79.754392	18772.919268493
25	62155	80.760096	15447.874781344
25	63068	81.816552	18772.919268493
25	64025	82.822256	15447.874781344
25	64938	83.878712	18772.919268493
25	65895	84.884416	15447.874781344
25	66759	85.940872	18454.734196145
25	67226	86.946576	7266.1705935385
25	67877	88.135648	9310.6257516391
25	68518	89.372944	14000.143183283
25	69284	90.378648	10904.382198596
25	70111	91.435104	17181.993906756
25	71064	92.440808	15144.975275828
25	71977	93.497264	18772.919268493
25	72913	94.502968	15447.874781344
25	73317	95.559424	10818.292459809
25	73849	96.565128	7087.2224466509
25	74602	97.69392	10862.396710246
25	75311	98.931216	15272.883472672
26	84	0	1.6312468598498
26	504	1.226056	11.314996573172
26	1348	2.463352	52.699402607527
26	2305	3.469056	48.274608691701
26	3218	4.525512	58.665372714039
26	4175	5.531216	48.274608691701
26	5088	6.587672	58.665372714039
26	6045	7.593376	48.274608691701
26	6958	8.649832	58.665372714039
26	7915	9.655536	48.274608691701
26	8828	10.711992	58.665372714039
26	9399	11.717696	30.043950006867
26	10003	12.882656	27.47927739199
26	10756	14.119952	33.944989719517
26	11372	15.357248	46.733432501014
26	11754	16.362952	15.909975741966
26	12354	17.431464	26.671063351049
26	13107	18.66876	33.944989719517
26	13814	19.906056	47.7277608521
26	14666	20.91176	39.755560099048
26	15566	21.968216	57.671044362954
26	16523	22.97392	48.274608691701
26	17436	24.030376	58.665372714039
26	18393	25.03608	48.274608691701
26	19306	26.092536	58.665372714039
26	20263	27.09824	48.274608691701
26	21176	28.154696	58.665372714039
26	22133	29.1604	48.274608691701
26	23046	30.216856	58.665372714039
26	24003	31.22256	48.274608691701
26	24916	32.279016	58.665372714039
26	25555	33.28472	32.146813673771
26	26159	34.497904	27.47927739199
26	26912	35.7352	33.944989719517
26	27621	36.972496	47.7277608521
26	28471	37.9782	39.755560099048
26	29177	39.034656	35.988915414052
26	29781	40.3684	27.47927739199
26	30534	41.605696	33.944989719517
26	31243	42.842992	47.7277608521
26	32093	43.848696	39.755560099048
26	32993	44.905152	57.671044362954
26	33950	45.910856	48.274608691701
26	34863	46.967312	58.665372714039
26	35820	47.973016	48.274608691701
26	36733	49.029472	58.665372714039
26	37338	50.035176	31.116702773255
26	37942	51.224248	27.47927739199
26	38695	52.461544	33.944989719517
26	39404	53.69884	47.7277608521
26	40254	54.704544	39.755560099048
26	41154	55.761	57.671044362954
26	42111	56.766704	48.274608691701
26	42950	57.82316	57.671044362954
26	43357	58.828864	19.48986172829
26	44008	59.957656	29.095705473872
26	44649	61.194952	43.750447447758
26	45415	62.200656	34.076194370613
26	46242	63.257112	53.693730958612
26	47195	64.262816	47.328047736962
26	48108	65.319272	58.665372714039
26	49065	66.324976	48.274608691701
26	49978	67.381432	58.665372714039
26	50935	68.387136	48.274608691701
26	51848	69.443592	58.665372714039
26	52805	70.449296	48.274608691701
26	53718	71.505752	58.665372714039
26	54675	72.511456	48.274608691701
26	55588	73.567912	58.665372714039
26	56545	74.573616	48.274608691701
26	57458	75.630072	58.665372714039
26	58415	76.635776	48.274608691701
26	59328	77.692232	58.665372714039
26	60285	78.697936	48.274608691701
26	61198	79.754392	58.665372714039
26	62155	80.760096	48.274608691701
26	63068	81.816552	58.665372714039
26	64025	82.822256	48.274608691701
26	64938	83.878712	58.665372714039
26	65895	84.884416	48.274608691701
26	66759	85.940872	57.671044362954
26	67226	86.946576	22.706783104808
26	67877	88.135648	29.095705473872
26	68518	89.372944	43.750447447758
26	69284	90.378648	34.076194370613
26	70111	91.435104	53.693730958612
26	71064	92.440808	47.328047736962
26	71977	93.497264	58.665372714039
26	72913	94.502968	48.274608691701
26	73317	95.559424	33.807163936904
26	73849	96.565128	22.147570145784
26	74602	97.69392	33.944989719517
26	75311	98.931216	47.7277608521
27	66	0	12354.73052024
27	360	1.02568	135779.95887807
27	1165	2.262976	632392.83129032
27	2119	3.26868	579295.30430042
27	3035	4.325136	703984.47256847
27	3989	5.33084	579295.30430042
27	4905	6.387296	703984.47256847
27	5859	7.393	579295.30430042
27	6775	8.449456	703984.47256847
27	7729	9.45516	579295.30430042
27	8645	10.511616	703984.47256847
27	9300	11.51732	360527.40008241
27	9886	12.68228	329751.32870388
27	10612	13.919576	407339.87663421
27	11280	15.156872	560801.19001217
27	11664	16.162576	173392.53092151
27	12237	17.231088	320052.76021259
27	12963	18.468384	407339.87663421
27	13667	19.70568	572733.1302252
27	14492	20.711384	477066.72118858
27	15383	21.76784	692052.53235544
27	16337	22.773544	579295.30430042
27	17253	23.83	703984.47256847
27	18207	24.835704	579295.30430042
27	19123	25.89216	703984.47256847
27	20077	26.897864	579295.30430042
27	20993	27.95432	703984.47256847
27	21947	28.960024	579295.30430042
27	22863	30.01648	703984.47256847
27	23817	31.022184	579295.30430042
27	24733	32.07864	703984.47256847
27	25456	33.084344	385761.76408525
27	26042	34.297528	329751.32870388
27	26768	35.534824	407339.87663421
27	27472	36.77212	572733.1302252
27	28299	37.777824	477066.72118858
27	29078	38.83428	431866.98496863
27	29664	40.168024	329751.32870388
27	30390	41.40532	407339.87663421
27	31094	42.642616	572733.1302252
27	31921	43.64832	477066.72118858
27	32810	44.704776	692052.53235544
27	33764	45.71048	579295.30430042
27	34680	46.766936	703984.47256847
27	35634	47.77264	579295.30430042
27	36550	48.829096	703984.47256847
27	37239	49.8348	373400.43327906
27	37825	51.023872	329751.32870388
27	38551	52.261168	407339.87663421
27	39255	53.498464	572733.1302252
27	40082	54.504168	477066.72118858
27	40971	55.560624	692052.53235544
27	41925	56.566328	579295.30430042
27	42822	57.622784	692052.53235544
27	43258	58.628488	233878.34073948
27	43882	59.75728	349148.46568646
27	44518	60.994576	525005.3693731
27	45259	62.00028	408914.33244735
27	46068	63.056736	644324.77150334
27	47009	64.06244	567936.57284354
27	47925	65.118896	703984.47256847
27	48879	66.1246	579295.30430042
27	49795	67.181056	703984.47256847
27	50749	68.18676	579295.30430042
27	51665	69.243216	703984.47256847
27	52619	70.24892	579295.30430042
27	53535	71.305376	703984.47256847
27	54489	72.31108	579295.30430042
27	55405	73.367536	703984.47256847
27	56359	74.37324	579295.30430042
27	57275	75.429696	703984.47256847
27	58229	76.4354	579295.30430042
27	59145	77.491856	703984.47256847
27	60099	78.49756	579295.30430042
27	61015	79.554016	703984.47256847
27	61969	80.55972	579295.30430042
27	62885	81.616176	703984.47256847
27	63839	82.62188	579295.30430042
27	64755	83.678336	703984.47256847
27	65709	84.68404	579295.30430042
27	66611	85.740496	692052.53235544
27	67127	86.7462	272481.39725769
27	67751	87.935272	349148.46568646
27	68387	89.172568	525005.3693731
27	69128	90.178272	408914.33244735
27	69937	91.234728	644324.77150334
27	70878	92.240432	567936.57284354
27	71794	93.296888	703984.47256847
27	72748	94.302592	579295.30430042
27	73227	95.359048	405685.96724285
27	73732	96.364752	265770.84174941
27	74458	97.493544	407339.87663421
27	75162	98.73084	572733.1302252
28	66	0	2.9248888542235
28	360	1.02568	11.314996573172
28	1165	2.262976	52.699402607527
28	2119	3.26868	48.274608691701
28	3035	4.325136	58.665372714039
28	3989	5.33084	48.274608691701
28	4905	6.387296	58.665372714039
28	5859	7.393	48.274608691701
28	6775	8.449456	58.665372714039
28	7729	9.45516	48.274608691701
28	8645	10.511616	58.665372714039
28	9300	11.51732	30.043950006867
28	9886	12.68228	27.47927739199
28	10612	13.919576	33.944989719517
28	11280	15.156872	46.733432501014
28	11664	16.162576	15.909975741966
28	12237	17.231088	26.671063351049
28	12963	18.468384	33.944989719517
28	13667	19.70568	47.7277608521
28	14492	20.711384	39.755560099048
28	15383	21.76784	57.671044362954
28	16337	22.773544	48.274608691701
28	17253	23.83	58.665372714039
28	18207	24.835704	48.274608691701
28	19123	25.89216	58.665372714039
28	20077	26.897864	48.274608691701
28	20993	27.95432	58.665372714039
28	21947	28.960024	48.274608691701
28	22863	30.01648	58.665372714039
28	23817	31.022184	48.274608691701
28	24733	32.07864	58.665372714039
28	25456	33.084344	32.146813673771
28	26042	34.297528	27.47927739199
28	26768	35.534824	33.944989719517
28	27472	36.77212	47.7277608521
28	28299	37.777824	39.755560099048
28	29078	38.83428	35.988915414052
28	29664	40.168024	27.47927739199
28	30390	41.40532	33.944989719517
28	31094	42.642616	47.7277608521
28	31921	43.64832	39.755560099048
28	32810	44.704776	57.671044362954
28	33764	45.71048	48.274608691701
28	34680	46.766936	58.665372714039
28	35634	47.77264	48.274608691701
28	36550	48.829096	58.665372714039
28	37239	49.8348	31.116702773255
28	37825	51.023872	27.47927739199
28	38551	52.261168	33.944989719517
28	39255	53.498464	47.7277608521
28	40082	54.504168	39.755560099048
28	40971	55.560624	57.671044362954
28	41925	56.566328	48.274608691701
28	42822	57.622784	57.671044362954
28	43258	58.628488	19.48986172829
28	43882	59.75728	29.095705473872
28	44518	60.994576	43.750447447758
28	45259	62.00028	34.076194370613
28	46068	63.056736	53.693730958612
28	47009	64.06244	47.328047736962
28	47925	65.118896	58.665372714039
28	48879	66.1246	48.274608691701
28	49795	67.181056	58.665372714039
28	50749	68.18676	48.274608691701
28	51665	69.243216	58.665372714039
28	52619	70.24892	48.274608691701
28	53535	71.305376	58.665372714039
28	54489	72.31108	48.274608691701
28	55405	73.367536	58.665372714039
28	56359	74.37324	48.274608691701
28	57275	75.429696	58.665372714039
28	58229	76.4354	48.274608691701
28	59145	77.491856	58.665372714039
28	60099	78.49756	48.274608691701
28	61015	79.554016	58.665372714039
28	61969	80.55972	48.274608691701
28	62885	81.616176	58.665372714039
28	63839	82.62188	48.274608691701
28	64755	83.678336	58.665372714039
28	65709	84.68404	48.274608691701
28	66611	85.740496	57.671044362954
28	67127	86.7462	22.706783104808
28	67751	87.935272	29.095705473872
28	68387	89.172568	43.750447447758
28	69128	90.178272	34.076194370613
28	69937	91.234728	53.693730958612
28	70878	92.240432	47.328047736962
28	71794	93.296888	58.665372714039
28	72748	94.302592	48.274608691701
28	73227	95.359048	33.807163936904
28	73732	96.364752	22.147570145784
28	74458	97.493544	33.944989719517
28	75162	98.73084	47.7277608521
