version 2
run sim_100s-4-20160524-12:08:51-4248
attr configname sim_100s
attr datetime 20160524-12:08:51
attr experiment sim_100s
attr inifile omnetpp.ini
attr iterationvars $simtime=100
attr iterationvars2 "$simtime=100, $repetition=4"
attr measurement $simtime=100
attr network Network
attr processid 4248
attr repetition 4
attr replication #4
attr resultdir results
attr runnumber 4
attr seedset 4
attr simtime 100

vector 27  Network.server.ppp[0].inputHook[0]  "thruput (bit/sec)"  ETV
vector 28  Network.server.ppp[0].inputHook[0]  packet/sec  ETV
vector 25  Network.client.ppp[0].inputHook[0]  "thruput (bit/sec)"  ETV
vector 26  Network.client.ppp[0].inputHook[0]  packet/sec  ETV
25	84	0	548.09894490953
25	504	1.226056	3620.7989034152
25	1348	2.463352	16863.808834409
25	2305	3.469056	15447.874781344
25	3218	4.525512	18772.919268493
25	4175	5.531216	15447.874781344
25	5088	6.587672	18772.919268493
25	6033	7.593376	15447.874781344
25	6509	8.649832	10818.292459809
25	7113	9.655536	8793.3687654369
25	7866	10.892832	10862.396710246
25	8575	12.130128	15272.883472672
25	9425	13.135832	12721.779231695
25	10325	14.192288	18454.734196145
25	11282	15.197992	15447.874781344
25	12195	16.254448	18772.919268493
25	13152	17.260152	15447.874781344
25	14065	18.316608	18772.919268493
25	15022	19.322312	15447.874781344
25	15935	20.378768	18772.919268493
25	16892	21.384472	15447.874781344
25	17795	22.440928	18772.919268493
25	18223	23.446632	7875.3871434305
25	18827	24.503088	8793.3687654369
25	19580	25.740384	10862.396710246
25	20289	26.97768	15272.883472672
25	21139	27.983384	12721.779231695
25	22039	29.03984	18454.734196145
25	22996	30.045544	15447.874781344
25	23909	31.102	18772.919268493
25	24605	32.107704	14643.646853812
25	25131	33.200328	5948.455341325
25	25577	34.437624	7610.5431390954
25	26010	35.699032	6207.083834426
25	26325	36.936328	5431.1983551228
25	26721	38.173624	5431.1983551228
25	27270	39.41092	7758.8547930325
25	27809	40.648216	11454.662604504
25	28469	41.65392	9692.7841765298
25	29179	42.710376	14986.528067854
25	30028	43.713944	12998.39787189
25	30929	44.772536	18175.151061014
25	31885	45.776104	15718.992775309
25	32799	46.834696	18494.01336033
25	33755	47.838264	15718.992775309
25	34669	48.896856	18494.01336033
25	35625	49.900424	15718.992775309
25	36539	50.959016	18494.01336033
25	37495	51.962584	15718.992775309
25	38409	53.021176	18494.01336033
25	39365	54.024744	15718.992775309
25	40279	55.083336	18494.01336033
25	41235	56.086904	15718.992775309
25	42149	57.145496	18494.01336033
25	43105	58.149064	15718.992775309
25	44019	59.207656	18494.01336033
25	44975	60.211224	15718.992775309
25	45889	61.269816	18494.01336033
25	46845	62.273384	15718.992775309
25	47759	63.331976	18494.01336033
25	48715	64.335544	15718.992775309
25	49629	65.394136	18494.01336033
25	50585	66.397704	15718.992775309
25	51499	67.456296	18494.01336033
25	52455	68.459864	15718.992775309
25	53369	69.518456	18494.01336033
25	54325	70.522024	15718.992775309
25	55239	71.580616	18494.01336033
25	56195	72.584184	15718.992775309
25	57109	73.642776	18494.01336033
25	58065	74.646344	15718.992775309
25	58979	75.704936	18494.01336033
25	59935	76.708504	15718.992775309
25	60849	77.767096	18494.01336033
25	61805	78.770664	15718.992775309
25	62719	79.829256	18494.01336033
25	63675	80.832824	15718.992775309
25	64461	81.891416	18175.151061014
25	64877	82.894984	7636.4417363359
25	65462	83.900688	7853.8069926932
25	66103	85.041536	14000.143183283
25	66869	86.04724	10904.382198596
25	67696	87.103696	17181.993906756
25	68649	88.1094	15144.975275828
25	69562	89.165856	18772.919268493
25	70519	90.17156	15447.874781344
25	71432	91.228016	18772.919268493
25	72389	92.23372	15447.874781344
25	73302	93.290176	18772.919268493
25	74259	94.29588	15447.874781344
25	75172	95.352336	18772.919268493
25	76129	96.35804	15447.874781344
25	77042	97.414496	18772.919268493
25	77999	98.4202	15447.874781344
26	84	0	1.6312468598498
26	504	1.226056	11.314996573172
26	1348	2.463352	52.699402607527
26	2305	3.469056	48.274608691701
26	3218	4.525512	58.665372714039
26	4175	5.531216	48.274608691701
26	5088	6.587672	58.665372714039
26	6033	7.593376	48.274608691701
26	6509	8.649832	33.807163936904
26	7113	9.655536	27.47927739199
26	7866	10.892832	33.944989719517
26	8575	12.130128	47.7277608521
26	9425	13.135832	39.755560099048
26	10325	14.192288	57.671044362954
26	11282	15.197992	48.274608691701
26	12195	16.254448	58.665372714039
26	13152	17.260152	48.274608691701
26	14065	18.316608	58.665372714039
26	15022	19.322312	48.274608691701
26	15935	20.378768	58.665372714039
26	16892	21.384472	48.274608691701
26	17795	22.440928	58.665372714039
26	18223	23.446632	24.61058482322
26	18827	24.503088	27.47927739199
26	19580	25.740384	33.944989719517
26	20289	26.97768	47.7277608521
26	21139	27.983384	39.755560099048
26	22039	29.03984	57.671044362954
26	22996	30.045544	48.274608691701
26	23909	31.102	58.665372714039
26	24605	32.107704	45.761396418164
26	25131	33.200328	18.58892294164
26	25577	34.437624	23.782947309673
26	26010	35.699032	19.397136982581
26	26325	36.936328	16.972494859759
26	26721	38.173624	16.972494859759
26	27270	39.41092	24.246421228227
26	27809	40.648216	35.795820639075
26	28469	41.65392	30.289950551656
26	29179	42.710376	46.832900212043
26	30028	43.713944	40.619993349657
26	30929	44.772536	56.79734706567
26	31885	45.776104	49.121852422841
26	32799	46.834696	57.793791751032
26	33755	47.838264	49.121852422841
26	34669	48.896856	57.793791751032
26	35625	49.900424	49.121852422841
26	36539	50.959016	57.793791751032
26	37495	51.962584	49.121852422841
26	38409	53.021176	57.793791751032
26	39365	54.024744	49.121852422841
26	40279	55.083336	57.793791751032
26	41235	56.086904	49.121852422841
26	42149	57.145496	57.793791751032
26	43105	58.149064	49.121852422841
26	44019	59.207656	57.793791751032
26	44975	60.211224	49.121852422841
26	45889	61.269816	57.793791751032
26	46845	62.273384	49.121852422841
26	47759	63.331976	57.793791751032
26	48715	64.335544	49.121852422841
26	49629	65.394136	57.793791751032
26	50585	66.397704	49.121852422841
26	51499	67.456296	57.793791751032
26	52455	68.459864	49.121852422841
26	53369	69.518456	57.793791751032
26	54325	70.522024	49.121852422841
26	55239	71.580616	57.793791751032
26	56195	72.584184	49.121852422841
26	57109	73.642776	57.793791751032
26	58065	74.646344	49.121852422841
26	58979	75.704936	57.793791751032
26	59935	76.708504	49.121852422841
26	60849	77.767096	57.793791751032
26	61805	78.770664	49.121852422841
26	62719	79.829256	57.793791751032
26	63675	80.832824	49.121852422841
26	64461	81.891416	56.79734706567
26	64877	82.894984	23.86388042605
26	65462	83.900688	24.543146852166
26	66103	85.041536	43.750447447758
26	66869	86.04724	34.076194370613
26	67696	87.103696	53.693730958612
26	68649	88.1094	47.328047736962
26	69562	89.165856	58.665372714039
26	70519	90.17156	48.274608691701
26	71432	91.228016	58.665372714039
26	72389	92.23372	48.274608691701
26	73302	93.290176	58.665372714039
26	74259	94.29588	48.274608691701
26	75172	95.352336	58.665372714039
26	76129	96.35804	48.274608691701
26	77042	97.414496	58.665372714039
26	77999	98.4202	48.274608691701
27	66	0	12354.73052024
27	360	1.02568	135779.95887807
27	1165	2.262976	632392.83129032
27	2119	3.26868	579295.30430042
27	3035	4.325136	703984.47256847
27	3989	5.33084	579295.30430042
27	4905	6.387296	703984.47256847
27	5859	7.393	579295.30430042
27	6410	8.449456	405685.96724285
27	6996	9.45516	329751.32870388
27	7722	10.692456	407339.87663421
27	8426	11.929752	572733.1302252
27	9253	12.935456	477066.72118858
27	10142	13.991912	692052.53235544
27	11096	14.997616	579295.30430042
27	12012	16.054072	703984.47256847
27	12966	17.059776	579295.30430042
27	13882	18.116232	703984.47256847
27	14836	19.121936	579295.30430042
27	15752	20.178392	703984.47256847
27	16706	21.184096	579295.30430042
27	17622	22.240552	703984.47256847
27	18124	23.246256	295327.01787864
27	18710	24.302712	329751.32870388
27	19436	25.540008	407339.87663421
27	20140	26.777304	572733.1302252
27	20967	27.783008	477066.72118858
27	21856	28.839464	692052.53235544
27	22810	29.845168	579295.30430042
27	23726	30.901624	703984.47256847
27	24592	31.907328	549136.75701797
27	25031	32.999952	223067.07529969
27	25514	34.237248	283873.25908826
27	25934	35.498656	232591.06955813
27	26271	36.735952	192497.18741514
27	26640	37.973248	203669.9383171
27	27162	39.210544	290957.05473872
27	27694	40.44784	429549.8476689
27	28333	41.453544	363479.40661987
27	29029	42.51	561994.80254452
27	29857	43.513568	487439.92019588
27	30745	44.57216	681568.16478804
27	31700	45.575728	589462.22907409
27	32615	46.63432	693525.50101239
27	33570	47.637888	589462.22907409
27	34485	48.69648	693525.50101239
27	35440	49.700048	589462.22907409
27	36355	50.75864	693525.50101239
27	37310	51.762208	589462.22907409
27	38225	52.8208	693525.50101239
27	39180	53.824368	589462.22907409
27	40095	54.88296	693525.50101239
27	41050	55.886528	589462.22907409
27	41965	56.94512	693525.50101239
27	42920	57.948688	589462.22907409
27	43835	59.00728	693525.50101239
27	44790	60.010848	589462.22907409
27	45705	61.06944	693525.50101239
27	46660	62.073008	589462.22907409
27	47575	63.1316	693525.50101239
27	48530	64.135168	589462.22907409
27	49445	65.19376	693525.50101239
27	50400	66.197328	589462.22907409
27	51315	67.25592	693525.50101239
27	52270	68.259488	589462.22907409
27	53185	69.31808	693525.50101239
27	54140	70.321648	589462.22907409
27	55055	71.38024	693525.50101239
27	56010	72.383808	589462.22907409
27	56925	73.4424	693525.50101239
27	57880	74.445968	589462.22907409
27	58795	75.50456	693525.50101239
27	59750	76.508128	589462.22907409
27	60665	77.56672	693525.50101239
27	61620	78.570288	589462.22907409
27	62535	79.62888	693525.50101239
27	63490	80.632448	589462.22907409
27	64364	81.69104	681568.16478804
27	64784	82.694608	286366.5651126
27	65336	83.700312	294517.76222599
27	65972	84.84116	525005.3693731
27	66713	85.846864	408914.33244735
27	67522	86.90332	644324.77150334
27	68463	87.909024	567936.57284354
27	69379	88.96548	703984.47256847
27	70333	89.971184	579295.30430042
27	71249	91.02764	703984.47256847
27	72203	92.033344	579295.30430042
27	73119	93.0898	703984.47256847
27	74073	94.095504	579295.30430042
27	74989	95.15196	703984.47256847
27	75943	96.157664	579295.30430042
27	76859	97.21412	703984.47256847
27	77813	98.219824	579295.30430042
28	66	0	2.9248888542235
28	360	1.02568	11.314996573172
28	1165	2.262976	52.699402607527
28	2119	3.26868	48.274608691701
28	3035	4.325136	58.665372714039
28	3989	5.33084	48.274608691701
28	4905	6.387296	58.665372714039
28	5859	7.393	48.274608691701
28	6410	8.449456	33.807163936904
28	6996	9.45516	27.47927739199
28	7722	10.692456	33.944989719517
28	8426	11.929752	47.7277608521
28	9253	12.935456	39.755560099048
28	10142	13.991912	57.671044362954
28	11096	14.997616	48.274608691701
28	12012	16.054072	58.665372714039
28	12966	17.059776	48.274608691701
28	13882	18.116232	58.665372714039
28	14836	19.121936	48.274608691701
28	15752	20.178392	58.665372714039
28	16706	21.184096	48.274608691701
28	17622	22.240552	58.665372714039
28	18124	23.246256	24.61058482322
28	18710	24.302712	27.47927739199
28	19436	25.540008	33.944989719517
28	20140	26.777304	47.7277608521
28	20967	27.783008	39.755560099048
28	21856	28.839464	57.671044362954
28	22810	29.845168	48.274608691701
28	23726	30.901624	58.665372714039
28	24592	31.907328	45.761396418164
28	25031	32.999952	18.58892294164
28	25514	34.237248	23.782947309673
28	25934	35.498656	19.397136982581
28	26271	36.735952	16.972494859759
28	26640	37.973248	16.972494859759
28	27162	39.210544	24.246421228227
28	27694	40.44784	35.795820639075
28	28333	41.453544	30.289950551656
28	29029	42.51	46.832900212043
28	29857	43.513568	40.619993349657
28	30745	44.57216	56.79734706567
28	31700	45.575728	49.121852422841
28	32615	46.63432	57.793791751032
28	33570	47.637888	49.121852422841
28	34485	48.69648	57.793791751032
28	35440	49.700048	49.121852422841
28	36355	50.75864	57.793791751032
28	37310	51.762208	49.121852422841
28	38225	52.8208	57.793791751032
28	39180	53.824368	49.121852422841
28	40095	54.88296	57.793791751032
28	41050	55.886528	49.121852422841
28	41965	56.94512	57.793791751032
28	42920	57.948688	49.121852422841
28	43835	59.00728	57.793791751032
28	44790	60.010848	49.121852422841
28	45705	61.06944	57.793791751032
28	46660	62.073008	49.121852422841
28	47575	63.1316	57.793791751032
28	48530	64.135168	49.121852422841
28	49445	65.19376	57.793791751032
28	50400	66.197328	49.121852422841
28	51315	67.25592	57.793791751032
28	52270	68.259488	49.121852422841
28	53185	69.31808	57.793791751032
28	54140	70.321648	49.121852422841
28	55055	71.38024	57.793791751032
28	56010	72.383808	49.121852422841
28	56925	73.4424	57.793791751032
28	57880	74.445968	49.121852422841
28	58795	75.50456	57.793791751032
28	59750	76.508128	49.121852422841
28	60665	77.56672	57.793791751032
28	61620	78.570288	49.121852422841
28	62535	79.62888	57.793791751032
28	63490	80.632448	49.121852422841
28	64364	81.69104	56.79734706567
28	64784	82.694608	23.86388042605
28	65336	83.700312	24.543146852166
28	65972	84.84116	43.750447447758
28	66713	85.846864	34.076194370613
28	67522	86.90332	53.693730958612
28	68463	87.909024	47.328047736962
28	69379	88.96548	58.665372714039
28	70333	89.971184	48.274608691701
28	71249	91.02764	58.665372714039
28	72203	92.033344	48.274608691701
28	73119	93.0898	58.665372714039
28	74073	94.095504	48.274608691701
28	74989	95.15196	58.665372714039
28	75943	96.157664	48.274608691701
28	76859	97.21412	58.665372714039
28	77813	98.219824	48.274608691701
