version 2
run sim_100s-6-20160524-12:08:52-2508
attr configname sim_100s
attr datetime 20160524-12:08:52
attr experiment sim_100s
attr inifile omnetpp.ini
attr iterationvars $simtime=100
attr iterationvars2 "$simtime=100, $repetition=6"
attr measurement $simtime=100
attr network Network
attr processid 2508
attr repetition 6
attr replication #6
attr resultdir results
attr runnumber 6
attr seedset 6
attr simtime 100

vector 27  Network.server.ppp[0].inputHook[0]  "thruput (bit/sec)"  ETV
vector 28  Network.server.ppp[0].inputHook[0]  packet/sec  ETV
vector 25  Network.client.ppp[0].inputHook[0]  "thruput (bit/sec)"  ETV
vector 26  Network.client.ppp[0].inputHook[0]  packet/sec  ETV
25	84	0	548.09894490953
25	504	1.226056	3620.7989034152
25	1348	2.463352	16863.808834409
25	2305	3.469056	15447.874781344
25	3218	4.525512	18772.919268493
25	4175	5.531216	15447.874781344
25	5088	6.587672	18772.919268493
25	5862	7.593376	15144.975275828
25	6270	8.649832	7636.4417363359
25	6871	9.655536	8240.6262875979
25	7512	10.820496	14000.143183283
25	8278	11.8262	10904.382198596
25	9105	12.882656	17181.993906756
25	10058	13.88836	15144.975275828
25	10971	14.944816	18772.919268493
25	11928	15.95052	15447.874781344
25	12841	17.006976	18772.919268493
25	13795	18.01268	15144.975275828
25	14708	19.069136	18772.919268493
25	15665	20.07484	15447.874781344
25	16578	21.131296	18772.919268493
25	17535	22.137	15447.874781344
25	18448	23.193456	18772.919268493
25	19405	24.19916	15447.874781344
25	20318	25.255616	18772.919268493
25	21275	26.26132	15447.874781344
25	22188	27.317776	18772.919268493
25	23145	28.32348	15447.874781344
25	23711	29.379936	11742.085100762
25	24315	30.470032	8793.3687654369
25	25068	31.707328	10862.396710246
25	25777	32.944624	15272.883472672
25	26627	33.950328	12721.779231695
25	27527	35.006784	18454.734196145
25	28340	36.012488	15144.975275828
25	28736	37.068944	7636.4417363359
25	29361	38.074648	8791.7357683777
25	30002	39.275776	14000.143183283
25	30768	40.28148	10904.382198596
25	31595	41.337936	17181.993906756
25	32548	42.34364	15144.975275828
25	33461	43.400096	18772.919268493
25	34418	44.4058	15447.874781344
25	35331	45.462256	18772.919268493
25	36288	46.46796	15447.874781344
25	37201	47.524416	18772.919268493
25	38158	48.53012	15447.874781344
25	39071	49.586576	18772.919268493
25	40028	50.59228	15447.874781344
25	40941	51.648736	18772.919268493
25	41877	52.65444	15447.874781344
25	42281	53.710896	10818.292459809
25	42813	54.7166	7087.2224466509
25	43566	55.845392	10862.396710246
25	44275	57.082688	15272.883472672
25	45125	58.088392	12721.779231695
25	46025	59.144848	18454.734196145
25	46982	60.150552	15447.874781344
25	47895	61.207008	18772.919268493
25	48852	62.212712	15447.874781344
25	49765	63.269168	18772.919268493
25	50722	64.274872	15447.874781344
25	51635	65.331328	18772.919268493
25	52592	66.337032	15447.874781344
25	53505	67.393488	18772.919268493
25	54462	68.399192	15447.874781344
25	55375	69.455648	18772.919268493
25	56332	70.461352	15447.874781344
25	57245	71.517808	18772.919268493
25	58202	72.523512	15447.874781344
25	59115	73.579968	18772.919268493
25	60072	74.585672	15447.874781344
25	60985	75.642128	18772.919268493
25	61942	76.647832	15447.874781344
25	62855	77.704288	18772.919268493
25	63812	78.709992	15447.874781344
25	64725	79.766448	18772.919268493
25	65682	80.772152	15447.874781344
25	66585	81.828608	18772.919268493
25	67013	82.834312	7875.3871434305
25	67617	83.890768	8793.3687654369
25	68370	85.128064	10862.396710246
25	69079	86.36536	15272.883472672
25	69929	87.371064	12721.779231695
25	70829	88.42752	18454.734196145
25	71786	89.433224	15447.874781344
25	72699	90.48968	18772.919268493
25	73656	91.495384	15447.874781344
25	74569	92.55184	18772.919268493
25	75526	93.557544	15447.874781344
25	76439	94.614	18772.919268493
25	77396	95.619704	15447.874781344
25	78309	96.67616	18772.919268493
25	79266	97.681864	15447.874781344
25	80179	98.73832	18772.919268493
26	84	0	1.6312468598498
26	504	1.226056	11.314996573172
26	1348	2.463352	52.699402607527
26	2305	3.469056	48.274608691701
26	3218	4.525512	58.665372714039
26	4175	5.531216	48.274608691701
26	5088	6.587672	58.665372714039
26	5862	7.593376	47.328047736962
26	6270	8.649832	23.86388042605
26	6871	9.655536	25.751957148743
26	7512	10.820496	43.750447447758
26	8278	11.8262	34.076194370613
26	9105	12.882656	53.693730958612
26	10058	13.88836	47.328047736962
26	10971	14.944816	58.665372714039
26	11928	15.95052	48.274608691701
26	12841	17.006976	58.665372714039
26	13795	18.01268	47.328047736962
26	14708	19.069136	58.665372714039
26	15665	20.07484	48.274608691701
26	16578	21.131296	58.665372714039
26	17535	22.137	48.274608691701
26	18448	23.193456	58.665372714039
26	19405	24.19916	48.274608691701
26	20318	25.255616	58.665372714039
26	21275	26.26132	48.274608691701
26	22188	27.317776	58.665372714039
26	23145	28.32348	48.274608691701
26	23711	29.379936	36.694015939881
26	24315	30.470032	27.47927739199
26	25068	31.707328	33.944989719517
26	25777	32.944624	47.7277608521
26	26627	33.950328	39.755560099048
26	27527	35.006784	57.671044362954
26	28340	36.012488	47.328047736962
26	28736	37.068944	23.86388042605
26	29361	38.074648	27.47417427618
26	30002	39.275776	43.750447447758
26	30768	40.28148	34.076194370613
26	31595	41.337936	53.693730958612
26	32548	42.34364	47.328047736962
26	33461	43.400096	58.665372714039
26	34418	44.4058	48.274608691701
26	35331	45.462256	58.665372714039
26	36288	46.46796	48.274608691701
26	37201	47.524416	58.665372714039
26	38158	48.53012	48.274608691701
26	39071	49.586576	58.665372714039
26	40028	50.59228	48.274608691701
26	40941	51.648736	58.665372714039
26	41877	52.65444	48.274608691701
26	42281	53.710896	33.807163936904
26	42813	54.7166	22.147570145784
26	43566	55.845392	33.944989719517
26	44275	57.082688	47.7277608521
26	45125	58.088392	39.755560099048
26	46025	59.144848	57.671044362954
26	46982	60.150552	48.274608691701
26	47895	61.207008	58.665372714039
26	48852	62.212712	48.274608691701
26	49765	63.269168	58.665372714039
26	50722	64.274872	48.274608691701
26	51635	65.331328	58.665372714039
26	52592	66.337032	48.274608691701
26	53505	67.393488	58.665372714039
26	54462	68.399192	48.274608691701
26	55375	69.455648	58.665372714039
26	56332	70.461352	48.274608691701
26	57245	71.517808	58.665372714039
26	58202	72.523512	48.274608691701
26	59115	73.579968	58.665372714039
26	60072	74.585672	48.274608691701
26	60985	75.642128	58.665372714039
26	61942	76.647832	48.274608691701
26	62855	77.704288	58.665372714039
26	63812	78.709992	48.274608691701
26	64725	79.766448	58.665372714039
26	65682	80.772152	48.274608691701
26	66585	81.828608	58.665372714039
26	67013	82.834312	24.61058482322
26	67617	83.890768	27.47927739199
26	68370	85.128064	33.944989719517
26	69079	86.36536	47.7277608521
26	69929	87.371064	39.755560099048
26	70829	88.42752	57.671044362954
26	71786	89.433224	48.274608691701
26	72699	90.48968	58.665372714039
26	73656	91.495384	48.274608691701
26	74569	92.55184	58.665372714039
26	75526	93.557544	48.274608691701
26	76439	94.614	58.665372714039
26	77396	95.619704	48.274608691701
26	78309	96.67616	58.665372714039
26	79266	97.681864	48.274608691701
26	80179	98.73832	58.665372714039
27	66	0	12354.73052024
27	360	1.02568	135779.95887807
27	1165	2.262976	632392.83129032
27	2119	3.26868	579295.30430042
27	3035	4.325136	703984.47256847
27	3989	5.33084	579295.30430042
27	4905	6.387296	703984.47256847
27	5789	7.393	567936.57284354
27	6175	8.449456	286366.5651126
27	6745	9.45516	309023.48578492
27	7381	10.62012	525005.3693731
27	8122	11.625824	408914.33244735
27	8931	12.68228	644324.77150334
27	9872	13.687984	567936.57284354
27	10788	14.74444	703984.47256847
27	11742	15.750144	579295.30430042
27	12658	16.8066	703984.47256847
27	13609	17.812304	579295.30430042
27	14525	18.86876	703984.47256847
27	15479	19.874464	579295.30430042
27	16395	20.93092	703984.47256847
27	17349	21.936624	579295.30430042
27	18265	22.99308	703984.47256847
27	19219	23.998784	579295.30430042
27	20135	25.05524	703984.47256847
27	21089	26.060944	579295.30430042
27	22005	27.1174	703984.47256847
27	22959	28.123104	579295.30430042
27	23612	29.17956	440328.19127857
27	24198	30.269656	329751.32870388
27	24924	31.506952	407339.87663421
27	25628	32.744248	572733.1302252
27	26455	33.749952	477066.72118858
27	27344	34.806408	692052.53235544
27	28243	35.812112	567936.57284354
27	28638	36.868568	286366.5651126
27	29235	37.874272	329690.09131416
27	29871	39.0754	525005.3693731
27	30612	40.081104	408914.33244735
27	31421	41.13756	644324.77150334
27	32362	42.143264	567936.57284354
27	33278	43.19972	703984.47256847
27	34232	44.205424	579295.30430042
27	35148	45.26188	703984.47256847
27	36102	46.267584	579295.30430042
27	37018	47.32404	703984.47256847
27	37972	48.329744	579295.30430042
27	38888	49.3862	703984.47256847
27	39842	50.391904	579295.30430042
27	40758	51.44836	703984.47256847
27	41712	52.454064	579295.30430042
27	42191	53.51052	405685.96724285
27	42696	54.516224	265770.84174941
27	43422	55.645016	407339.87663421
27	44126	56.882312	572733.1302252
27	44953	57.888016	477066.72118858
27	45842	58.944472	692052.53235544
27	46796	59.950176	579295.30430042
27	47712	61.006632	703984.47256847
27	48666	62.012336	579295.30430042
27	49582	63.068792	703984.47256847
27	50536	64.074496	579295.30430042
27	51452	65.130952	703984.47256847
27	52406	66.136656	579295.30430042
27	53322	67.193112	703984.47256847
27	54276	68.198816	579295.30430042
27	55192	69.255272	703984.47256847
27	56146	70.260976	579295.30430042
27	57062	71.317432	703984.47256847
27	58016	72.323136	579295.30430042
27	58932	73.379592	703984.47256847
27	59886	74.385296	579295.30430042
27	60802	75.441752	703984.47256847
27	61756	76.447456	579295.30430042
27	62672	77.503912	703984.47256847
27	63626	78.509616	579295.30430042
27	64542	79.566072	703984.47256847
27	65496	80.571776	579295.30430042
27	66412	81.628232	703984.47256847
27	66914	82.633936	295327.01787864
27	67500	83.690392	329751.32870388
27	68226	84.927688	407339.87663421
27	68930	86.164984	572733.1302252
27	69757	87.170688	477066.72118858
27	70646	88.227144	692052.53235544
27	71600	89.232848	579295.30430042
27	72516	90.289304	703984.47256847
27	73470	91.295008	579295.30430042
27	74386	92.351464	703984.47256847
27	75340	93.357168	579295.30430042
27	76256	94.413624	703984.47256847
27	77210	95.419328	579295.30430042
27	78126	96.475784	703984.47256847
27	79080	97.481488	579295.30430042
27	79996	98.537944	703984.47256847
28	66	0	2.9248888542235
28	360	1.02568	11.314996573172
28	1165	2.262976	52.699402607527
28	2119	3.26868	48.274608691701
28	3035	4.325136	58.665372714039
28	3989	5.33084	48.274608691701
28	4905	6.387296	58.665372714039
28	5789	7.393	47.328047736962
28	6175	8.449456	23.86388042605
28	6745	9.45516	25.751957148743
28	7381	10.62012	43.750447447758
28	8122	11.625824	34.076194370613
28	8931	12.68228	53.693730958612
28	9872	13.687984	47.328047736962
28	10788	14.74444	58.665372714039
28	11742	15.750144	48.274608691701
28	12658	16.8066	58.665372714039
28	13609	17.812304	48.274608691701
28	14525	18.86876	58.665372714039
28	15479	19.874464	48.274608691701
28	16395	20.93092	58.665372714039
28	17349	21.936624	48.274608691701
28	18265	22.99308	58.665372714039
28	19219	23.998784	48.274608691701
28	20135	25.05524	58.665372714039
28	21089	26.060944	48.274608691701
28	22005	27.1174	58.665372714039
28	22959	28.123104	48.274608691701
28	23612	29.17956	36.694015939881
28	24198	30.269656	27.47927739199
28	24924	31.506952	33.944989719517
28	25628	32.744248	47.7277608521
28	26455	33.749952	39.755560099048
28	27344	34.806408	57.671044362954
28	28243	35.812112	47.328047736962
28	28638	36.868568	23.86388042605
28	29235	37.874272	27.47417427618
28	29871	39.0754	43.750447447758
28	30612	40.081104	34.076194370613
28	31421	41.13756	53.693730958612
28	32362	42.143264	47.328047736962
28	33278	43.19972	58.665372714039
28	34232	44.205424	48.274608691701
28	35148	45.26188	58.665372714039
28	36102	46.267584	48.274608691701
28	37018	47.32404	58.665372714039
28	37972	48.329744	48.274608691701
28	38888	49.3862	58.665372714039
28	39842	50.391904	48.274608691701
28	40758	51.44836	58.665372714039
28	41712	52.454064	48.274608691701
28	42191	53.51052	33.807163936904
28	42696	54.516224	22.147570145784
28	43422	55.645016	33.944989719517
28	44126	56.882312	47.7277608521
28	44953	57.888016	39.755560099048
28	45842	58.944472	57.671044362954
28	46796	59.950176	48.274608691701
28	47712	61.006632	58.665372714039
28	48666	62.012336	48.274608691701
28	49582	63.068792	58.665372714039
28	50536	64.074496	48.274608691701
28	51452	65.130952	58.665372714039
28	52406	66.136656	48.274608691701
28	53322	67.193112	58.665372714039
28	54276	68.198816	48.274608691701
28	55192	69.255272	58.665372714039
28	56146	70.260976	48.274608691701
28	57062	71.317432	58.665372714039
28	58016	72.323136	48.274608691701
28	58932	73.379592	58.665372714039
28	59886	74.385296	48.274608691701
28	60802	75.441752	58.665372714039
28	61756	76.447456	48.274608691701
28	62672	77.503912	58.665372714039
28	63626	78.509616	48.274608691701
28	64542	79.566072	58.665372714039
28	65496	80.571776	48.274608691701
28	66412	81.628232	58.665372714039
28	66914	82.633936	24.61058482322
28	67500	83.690392	27.47927739199
28	68226	84.927688	33.944989719517
28	68930	86.164984	47.7277608521
28	69757	87.170688	39.755560099048
28	70646	88.227144	57.671044362954
28	71600	89.232848	48.274608691701
28	72516	90.289304	58.665372714039
28	73470	91.295008	48.274608691701
28	74386	92.351464	58.665372714039
28	75340	93.357168	48.274608691701
28	76256	94.413624	58.665372714039
28	77210	95.419328	48.274608691701
28	78126	96.475784	58.665372714039
28	79080	97.481488	48.274608691701
28	79996	98.537944	58.665372714039
