version 2
run sim_100s-0-20160524-12:08:47-4744
attr configname sim_100s
attr datetime 20160524-12:08:47
attr experiment sim_100s
attr inifile omnetpp.ini
attr iterationvars $simtime=100
attr iterationvars2 "$simtime=100, $repetition=0"
attr measurement $simtime=100
attr network Network
attr processid 4744
attr repetition 0
attr replication #0
attr resultdir results
attr runnumber 0
attr seedset 0
attr simtime 100

vector 27  Network.server.ppp[0].inputHook[0]  "thruput (bit/sec)"  ETV
vector 28  Network.server.ppp[0].inputHook[0]  packet/sec  ETV
vector 25  Network.client.ppp[0].inputHook[0]  "thruput (bit/sec)"  ETV
vector 26  Network.client.ppp[0].inputHook[0]  packet/sec  ETV
25	84	0	548.09894490953
25	504	1.226056	3620.7989034152
25	1348	2.463352	16863.808834409
25	2305	3.469056	15447.874781344
25	3218	4.525512	18772.919268493
25	4175	5.531216	15447.874781344
25	5088	6.587672	18772.919268493
25	6045	7.593376	15447.874781344
25	6958	8.649832	18772.919268493
25	7915	9.655536	15447.874781344
25	8828	10.711992	18772.919268493
25	9785	11.717696	15447.874781344
25	10698	12.774152	18772.919268493
25	11655	13.779856	15447.874781344
25	12568	14.836312	18772.919268493
25	13525	15.842016	15447.874781344
25	14438	16.898472	18772.919268493
25	15395	17.904176	15447.874781344
25	16308	18.960632	18772.919268493
25	17265	19.966336	15447.874781344
25	18178	21.022792	18772.919268493
25	18766	22.028496	9787.46253237
25	19370	23.205512	8793.3687654369
25	20123	24.442808	10862.396710246
25	20789	25.680104	11408.796181856
25	21133	26.942288	5883.1052564267
25	21482	28.193328	4913.9413689206
25	21980	29.430624	6982.9693137293
25	22485	30.66792	10844.86264503
25	23123	31.67116	9368.0353567786
25	23807	32.73008	14034.528128862
25	24637	33.73332	12692.17693499
25	25507	34.79224	17818.364051451
25	26186	35.797944	14510.886866907
25	26720	36.878512	5948.455341325
25	27422	38.115808	10086.511230942
25	28097	39.353104	14636.513327977
25	28905	40.358808	11813.080715146
25	29775	41.415264	17818.364051451
25	30732	42.420968	15447.874781344
25	31645	43.477424	18772.919268493
25	32602	44.483128	15447.874781344
25	33515	45.539584	18772.919268493
25	34472	46.545288	15447.874781344
25	35385	47.601744	18772.919268493
25	36342	48.607448	15447.874781344
25	37255	49.663904	18772.919268493
25	38212	50.669608	15447.874781344
25	39125	51.726064	18772.919268493
25	40062	52.731768	15447.874781344
25	40474	53.788224	10818.292459809
25	41014	54.793928	7292.8207789294
25	41767	55.934776	10862.396710246
25	42476	57.172072	15272.883472672
25	43326	58.177776	12721.779231695
25	44226	59.234232	18454.734196145
25	45183	60.239936	15447.874781344
25	46096	61.296392	18772.919268493
25	47053	62.302096	15447.874781344
25	47966	63.358552	18772.919268493
25	48923	64.364256	15447.874781344
25	49836	65.420712	18772.919268493
25	50793	66.426416	15447.874781344
25	51706	67.482872	18772.919268493
25	52663	68.488576	15447.874781344
25	53576	69.545032	18772.919268493
25	54533	70.550736	15447.874781344
25	55446	71.607192	18772.919268493
25	56403	72.612896	15447.874781344
25	57316	73.669352	18772.919268493
25	58273	74.675056	15447.874781344
25	59186	75.731512	18772.919268493
25	60143	76.737216	15447.874781344
25	61056	77.793672	18772.919268493
25	62013	78.799376	15447.874781344
25	62926	79.855832	18772.919268493
25	63883	80.861536	15447.874781344
25	64796	81.917992	18772.919268493
25	65753	82.923696	15447.874781344
25	66666	83.980152	18772.919268493
25	67612	84.985856	15447.874781344
25	68104	86.042312	11004.559031599
25	68708	87.060072	8793.3687654369
25	69461	88.297368	10862.396710246
25	70170	89.534664	15272.883472672
25	71020	90.540368	12721.779231695
25	71920	91.596824	18454.734196145
25	72877	92.602528	15447.874781344
25	73790	93.658984	18772.919268493
25	74747	94.664688	15447.874781344
25	75660	95.721144	18772.919268493
25	76617	96.726848	15447.874781344
25	77530	97.783304	18772.919268493
25	78487	98.789008	15447.874781344
26	84	0	1.6312468598498
26	504	1.226056	11.314996573172
26	1348	2.463352	52.699402607527
26	2305	3.469056	48.274608691701
26	3218	4.525512	58.665372714039
26	4175	5.531216	48.274608691701
26	5088	6.587672	58.665372714039
26	6045	7.593376	48.274608691701
26	6958	8.649832	58.665372714039
26	7915	9.655536	48.274608691701
26	8828	10.711992	58.665372714039
26	9785	11.717696	48.274608691701
26	10698	12.774152	58.665372714039
26	11655	13.779856	48.274608691701
26	12568	14.836312	58.665372714039
26	13525	15.842016	48.274608691701
26	14438	16.898472	58.665372714039
26	15395	17.904176	48.274608691701
26	16308	18.960632	58.665372714039
26	17265	19.966336	48.274608691701
26	18178	21.022792	58.665372714039
26	18766	22.028496	30.585820413656
26	19370	23.205512	27.47927739199
26	20123	24.442808	33.944989719517
26	20789	25.680104	35.652488068301
26	21133	26.942288	18.384703926333
26	21482	28.193328	15.356066777877
26	21980	29.430624	21.821779105404
26	22485	30.66792	33.890195765719
26	23123	31.67116	29.275110489933
26	23807	32.73008	43.857900402695
26	24637	33.73332	39.663052921845
26	25507	34.79224	55.682387660783
26	26186	35.797944	45.346521459084
26	26720	36.878512	18.58892294164
26	27422	38.115808	31.520347596695
26	28097	39.353104	45.739104149929
26	28905	40.358808	36.91587723483
26	29775	41.415264	55.682387660783
26	30732	42.420968	48.274608691701
26	31645	43.477424	58.665372714039
26	32602	44.483128	48.274608691701
26	33515	45.539584	58.665372714039
26	34472	46.545288	48.274608691701
26	35385	47.601744	58.665372714039
26	36342	48.607448	48.274608691701
26	37255	49.663904	58.665372714039
26	38212	50.669608	48.274608691701
26	39125	51.726064	58.665372714039
26	40062	52.731768	48.274608691701
26	40474	53.788224	33.807163936904
26	41014	54.793928	22.790064934154
26	41767	55.934776	33.944989719517
26	42476	57.172072	47.7277608521
26	43326	58.177776	39.755560099048
26	44226	59.234232	57.671044362954
26	45183	60.239936	48.274608691701
26	46096	61.296392	58.665372714039
26	47053	62.302096	48.274608691701
26	47966	63.358552	58.665372714039
26	48923	64.364256	48.274608691701
26	49836	65.420712	58.665372714039
26	50793	66.426416	48.274608691701
26	51706	67.482872	58.665372714039
26	52663	68.488576	48.274608691701
26	53576	69.545032	58.665372714039
26	54533	70.550736	48.274608691701
26	55446	71.607192	58.665372714039
26	56403	72.612896	48.274608691701
26	57316	73.669352	58.665372714039
26	58273	74.675056	48.274608691701
26	59186	75.731512	58.665372714039
26	60143	76.737216	48.274608691701
26	61056	77.793672	58.665372714039
26	62013	78.799376	48.274608691701
26	62926	79.855832	58.665372714039
26	63883	80.861536	48.274608691701
26	64796	81.917992	58.665372714039
26	65753	82.923696	48.274608691701
26	66666	83.980152	58.665372714039
26	67612	84.985856	48.274608691701
26	68104	86.042312	34.389246973746
26	68708	87.060072	27.47927739199
26	69461	88.297368	33.944989719517
26	70170	89.534664	47.7277608521
26	71020	90.540368	39.755560099048
26	71920	91.596824	57.671044362954
26	72877	92.602528	48.274608691701
26	73790	93.658984	58.665372714039
26	74747	94.664688	48.274608691701
26	75660	95.721144	58.665372714039
26	76617	96.726848	48.274608691701
26	77530	97.783304	58.665372714039
26	78487	98.789008	48.274608691701
27	66	0	12354.73052024
27	360	1.02568	135779.95887807
27	1165	2.262976	632392.83129032
27	2119	3.26868	579295.30430042
27	3035	4.325136	703984.47256847
27	3989	5.33084	579295.30430042
27	4905	6.387296	703984.47256847
27	5859	7.393	579295.30430042
27	6775	8.449456	703984.47256847
27	7729	9.45516	579295.30430042
27	8645	10.511616	703984.47256847
27	9599	11.51732	579295.30430042
27	10515	12.573776	703984.47256847
27	11469	13.57948	579295.30430042
27	12385	14.635936	703984.47256847
27	13339	15.64164	579295.30430042
27	14255	16.698096	703984.47256847
27	15209	17.7038	579295.30430042
27	16125	18.760256	703984.47256847
27	17079	19.76596	579295.30430042
27	17995	20.822416	703984.47256847
27	18667	21.82812	367029.84496387
27	19253	23.005136	329751.32870388
27	19979	24.242432	407339.87663421
27	20708	25.479728	427829.85681961
27	21079	26.741912	201387.64547896
27	21410	27.992952	176177.72950046
27	21881	29.230248	261861.34926485
27	22379	30.467544	406682.34918863
27	22993	31.470784	351301.3258792
27	23662	32.529704	526294.80483234
27	24467	33.532944	475956.63506214
27	25324	34.591864	668188.65192939
27	26173	35.597568	544158.25750901
27	26612	36.678136	223067.07529969
27	27287	37.915432	378244.17116034
27	27957	39.152728	548869.24979915
27	28741	40.158432	442990.52681796
27	29592	41.214888	668188.65192939
27	30546	42.220592	579295.30430042
27	31462	43.277048	703984.47256847
27	32416	44.282752	579295.30430042
27	33332	45.339208	703984.47256847
27	34286	46.344912	579295.30430042
27	35202	47.401368	703984.47256847
27	36156	48.407072	579295.30430042
27	37072	49.463528	703984.47256847
27	38026	50.469232	579295.30430042
27	38942	51.525688	703984.47256847
27	39896	52.531392	579295.30430042
27	40383	53.587848	405685.96724285
27	40897	54.593552	273480.77920985
27	41623	55.7344	407339.87663421
27	42327	56.971696	572733.1302252
27	43154	57.9774	477066.72118858
27	44043	59.033856	692052.53235544
27	44997	60.03956	579295.30430042
27	45913	61.096016	703984.47256847
27	46867	62.10172	579295.30430042
27	47783	63.158176	703984.47256847
27	48737	64.16388	579295.30430042
27	49653	65.220336	703984.47256847
27	50607	66.22604	579295.30430042
27	51523	67.282496	703984.47256847
27	52477	68.2882	579295.30430042
27	53393	69.344656	703984.47256847
27	54347	70.35036	579295.30430042
27	55263	71.406816	703984.47256847
27	56217	72.41252	579295.30430042
27	57133	73.468976	703984.47256847
27	58087	74.47468	579295.30430042
27	59003	75.531136	703984.47256847
27	59957	76.53684	579295.30430042
27	60873	77.593296	703984.47256847
27	61827	78.599	579295.30430042
27	62743	79.655456	703984.47256847
27	63697	80.66116	579295.30430042
27	64613	81.717616	703984.47256847
27	65567	82.72332	579295.30430042
27	66483	83.779776	703984.47256847
27	67437	84.78548	579295.30430042
27	68005	85.841936	412670.96368496
27	68591	86.859696	329751.32870388
27	69317	88.096992	407339.87663421
27	70021	89.334288	572733.1302252
27	70848	90.339992	477066.72118858
27	71737	91.396448	692052.53235544
27	72691	92.402152	579295.30430042
27	73607	93.458608	703984.47256847
27	74561	94.464312	579295.30430042
27	75477	95.520768	703984.47256847
27	76431	96.526472	579295.30430042
27	77347	97.582928	703984.47256847
27	78301	98.588632	579295.30430042
28	66	0	2.9248888542235
28	360	1.02568	11.314996573172
28	1165	2.262976	52.699402607527
28	2119	3.26868	48.274608691701
28	3035	4.325136	58.665372714039
28	3989	5.33084	48.274608691701
28	4905	6.387296	58.665372714039
28	5859	7.393	48.274608691701
28	6775	8.449456	58.665372714039
28	7729	9.45516	48.274608691701
28	8645	10.511616	58.665372714039
28	9599	11.51732	48.274608691701
28	10515	12.573776	58.665372714039
28	11469	13.57948	48.274608691701
28	12385	14.635936	58.665372714039
28	13339	15.64164	48.274608691701
28	14255	16.698096	58.665372714039
28	15209	17.7038	48.274608691701
28	16125	18.760256	58.665372714039
28	17079	19.76596	48.274608691701
28	17995	20.822416	58.665372714039
28	18667	21.82812	30.585820413656
28	19253	23.005136	27.47927739199
28	19979	24.242432	33.944989719517
28	20708	25.479728	35.652488068301
28	21079	26.741912	18.384703926333
28	21410	27.992952	15.356066777877
28	21881	29.230248	21.821779105404
28	22379	30.467544	33.890195765719
28	22993	31.470784	29.275110489933
28	23662	32.529704	43.857900402695
28	24467	33.532944	39.663052921845
28	25324	34.591864	55.682387660783
28	26173	35.597568	45.346521459084
28	26612	36.678136	18.58892294164
28	27287	37.915432	31.520347596695
28	27957	39.152728	45.739104149929
28	28741	40.158432	36.91587723483
28	29592	41.214888	55.682387660783
28	30546	42.220592	48.274608691701
28	31462	43.277048	58.665372714039
28	32416	44.282752	48.274608691701
28	33332	45.339208	58.665372714039
28	34286	46.344912	48.274608691701
28	35202	47.401368	58.665372714039
28	36156	48.407072	48.274608691701
28	37072	49.463528	58.665372714039
28	38026	50.469232	48.274608691701
28	38942	51.525688	58.665372714039
28	39896	52.531392	48.274608691701
28	40383	53.587848	33.807163936904
28	40897	54.593552	22.790064934154
28	41623	55.7344	33.944989719517
28	42327	56.971696	47.7277608521
28	43154	57.9774	39.755560099048
28	44043	59.033856	57.671044362954
28	44997	60.03956	48.274608691701
28	45913	61.096016	58.665372714039
28	46867	62.10172	48.274608691701
28	47783	63.158176	58.665372714039
28	48737	64.16388	48.274608691701
28	49653	65.220336	58.665372714039
28	50607	66.22604	48.274608691701
28	51523	67.282496	58.665372714039
28	52477	68.2882	48.274608691701
28	53393	69.344656	58.665372714039
28	54347	70.35036	48.274608691701
28	55263	71.406816	58.665372714039
28	56217	72.41252	48.274608691701
28	57133	73.468976	58.665372714039
28	58087	74.47468	48.274608691701
28	59003	75.531136	58.665372714039
28	59957	76.53684	48.274608691701
28	60873	77.593296	58.665372714039
28	61827	78.599	48.274608691701
28	62743	79.655456	58.665372714039
28	63697	80.66116	48.274608691701
28	64613	81.717616	58.665372714039
28	65567	82.72332	48.274608691701
28	66483	83.779776	58.665372714039
28	67437	84.78548	48.274608691701
28	68005	85.841936	34.389246973746
28	68591	86.859696	27.47927739199
28	69317	88.096992	33.944989719517
28	70021	89.334288	47.7277608521
28	70848	90.339992	39.755560099048
28	71737	91.396448	57.671044362954
28	72691	92.402152	48.274608691701
28	73607	93.458608	58.665372714039
28	74561	94.464312	48.274608691701
28	75477	95.520768	58.665372714039
28	76431	96.526472	48.274608691701
28	77347	97.582928	58.665372714039
28	78301	98.588632	48.274608691701
