version 2
run sim_100s-8-20160524-12:08:55-1388
attr configname sim_100s
attr datetime 20160524-12:08:55
attr experiment sim_100s
attr inifile omnetpp.ini
attr iterationvars $simtime=100
attr iterationvars2 "$simtime=100, $repetition=8"
attr measurement $simtime=100
attr network Network
attr processid 1388
attr repetition 8
attr replication #8
attr resultdir results
attr runnumber 8
attr seedset 8
attr simtime 100

vector 27  Network.server.ppp[0].inputHook[0]  "thruput (bit/sec)"  ETV
vector 28  Network.server.ppp[0].inputHook[0]  packet/sec  ETV
vector 25  Network.client.ppp[0].inputHook[0]  "thruput (bit/sec)"  ETV
vector 26  Network.client.ppp[0].inputHook[0]  packet/sec  ETV
25	84	0	548.09894490953
25	504	1.226056	3620.7989034152
25	1348	2.463352	16863.808834409
25	2305	3.469056	15447.874781344
25	3218	4.525512	18772.919268493
25	4175	5.531216	15447.874781344
25	5088	6.587672	18772.919268493
25	6045	7.593376	15447.874781344
25	6958	8.649832	18772.919268493
25	7603	9.655536	14236.276759278
25	8137	10.711992	5948.455341325
25	8839	11.949288	10086.511230942
25	9514	13.186584	14636.513327977
25	10322	14.192288	11813.080715146
25	11192	15.248744	17818.364051451
25	12149	16.254448	15447.874781344
25	13062	17.310904	18772.919268493
25	14019	18.316608	15447.874781344
25	14932	19.373064	18772.919268493
25	15889	20.378768	15447.874781344
25	16802	21.435224	18772.919268493
25	17759	22.440928	15447.874781344
25	18628	23.497384	18454.734196145
25	19107	24.503088	7459.6545913508
25	19758	25.704216	9310.6257516391
25	20399	26.941512	14000.143183283
25	21165	27.947216	10904.382198596
25	21992	29.003672	17181.993906756
25	22945	30.009376	15144.975275828
25	23858	31.065832	18772.919268493
25	24815	32.071536	15447.874781344
25	25728	33.127992	18772.919268493
25	26685	34.133696	15447.874781344
25	27598	35.190152	18772.919268493
25	28555	36.195856	15447.874781344
25	29468	37.252312	18772.919268493
25	30425	38.258016	15447.874781344
25	31338	39.314472	18772.919268493
25	32295	40.320176	15447.874781344
25	33208	41.376632	18772.919268493
25	34165	42.382336	15447.874781344
25	35078	43.438792	18772.919268493
25	35878	44.444496	15144.975275828
25	36278	45.500952	7636.4417363359
25	36780	46.506656	8342.6403110997
25	37180	47.695728	5689.8268482239
25	37603	48.933024	8909.1820257253
25	38153	49.938728	8178.286648947
25	38762	50.995184	12091.032749199
25	39505	52.000888	11813.080715146
25	40302	53.057344	15926.229704011
25	41230	54.061976	15129.623045442
25	41982	55.119504	17837.377268492
25	42406	56.124136	7636.4417363359
25	42975	57.12984	7450.2836838787
25	43616	58.246576	14000.143183283
25	44382	59.25228	10904.382198596
25	45209	60.308736	17181.993906756
25	46162	61.31444	15144.975275828
25	47075	62.370896	18772.919268493
25	48009	63.3766	15447.874781344
25	48496	64.433056	8463.5011512851
25	49147	65.718576	9310.6257516391
25	49788	66.955872	14000.143183283
25	50554	67.961576	10904.382198596
25	51381	69.018032	17181.993906756
25	52334	70.023736	15144.975275828
25	53247	71.080192	18772.919268493
25	54204	72.085896	15447.874781344
25	55117	73.142352	18772.919268493
25	56074	74.148056	15447.874781344
25	56987	75.204512	18772.919268493
25	57944	76.210216	15447.874781344
25	58857	77.266672	18772.919268493
25	59814	78.272376	15447.874781344
25	60727	79.328832	18772.919268493
25	61684	80.334536	15447.874781344
25	62597	81.390992	18772.919268493
25	63554	82.396696	15447.874781344
25	64467	83.453152	18772.919268493
25	65424	84.458856	15447.874781344
25	66337	85.515312	18772.919268493
25	67294	86.521016	15447.874781344
25	68207	87.577472	18772.919268493
25	69164	88.583176	15447.874781344
25	70077	89.639632	18772.919268493
25	71034	90.645336	15447.874781344
25	71947	91.701792	18772.919268493
25	72904	92.707496	15447.874781344
25	73817	93.763952	18772.919268493
25	74774	94.769656	15447.874781344
25	75687	95.826112	18772.919268493
25	76644	96.831816	15447.874781344
25	77557	97.888272	18772.919268493
25	78514	98.893976	15447.874781344
26	84	0	1.6312468598498
26	504	1.226056	11.314996573172
26	1348	2.463352	52.699402607527
26	2305	3.469056	48.274608691701
26	3218	4.525512	58.665372714039
26	4175	5.531216	48.274608691701
26	5088	6.587672	58.665372714039
26	6045	7.593376	48.274608691701
26	6958	8.649832	58.665372714039
26	7603	9.655536	44.488364872744
26	8137	10.711992	18.58892294164
26	8839	11.949288	31.520347596695
26	9514	13.186584	45.739104149929
26	10322	14.192288	36.91587723483
26	11192	15.248744	55.682387660783
26	12149	16.254448	48.274608691701
26	13062	17.310904	58.665372714039
26	14019	18.316608	48.274608691701
26	14932	19.373064	58.665372714039
26	15889	20.378768	48.274608691701
26	16802	21.435224	58.665372714039
26	17759	22.440928	48.274608691701
26	18628	23.497384	57.671044362954
26	19107	24.503088	23.311420597971
26	19758	25.704216	29.095705473872
26	20399	26.941512	43.750447447758
26	21165	27.947216	34.076194370613
26	21992	29.003672	53.693730958612
26	22945	30.009376	47.328047736962
26	23858	31.065832	58.665372714039
26	24815	32.071536	48.274608691701
26	25728	33.127992	58.665372714039
26	26685	34.133696	48.274608691701
26	27598	35.190152	58.665372714039
26	28555	36.195856	48.274608691701
26	29468	37.252312	58.665372714039
26	30425	38.258016	48.274608691701
26	31338	39.314472	58.665372714039
26	32295	40.320176	48.274608691701
26	33208	41.376632	58.665372714039
26	34165	42.382336	48.274608691701
26	35078	43.438792	58.665372714039
26	35878	44.444496	47.328047736962
26	36278	45.500952	23.86388042605
26	36780	46.506656	26.070750972187
26	37180	47.695728	17.7807089007
26	37603	48.933024	27.841193830391
26	38153	49.938728	25.55714577796
26	38762	50.995184	37.784477341246
26	39505	52.000888	36.91587723483
26	40302	53.057344	49.769467825034
26	41230	54.061976	47.280072017006
26	41982	55.119504	55.741803964039
26	42406	56.124136	23.86388042605
26	42975	57.12984	23.282136512121
26	43616	58.246576	43.750447447758
26	44382	59.25228	34.076194370613
26	45209	60.308736	53.693730958612
26	46162	61.31444	47.328047736962
26	47075	62.370896	58.665372714039
26	48009	63.3766	48.274608691701
26	48496	64.433056	26.448441097766
26	49147	65.718576	29.095705473872
26	49788	66.955872	43.750447447758
26	50554	67.961576	34.076194370613
26	51381	69.018032	53.693730958612
26	52334	70.023736	47.328047736962
26	53247	71.080192	58.665372714039
26	54204	72.085896	48.274608691701
26	55117	73.142352	58.665372714039
26	56074	74.148056	48.274608691701
26	56987	75.204512	58.665372714039
26	57944	76.210216	48.274608691701
26	58857	77.266672	58.665372714039
26	59814	78.272376	48.274608691701
26	60727	79.328832	58.665372714039
26	61684	80.334536	48.274608691701
26	62597	81.390992	58.665372714039
26	63554	82.396696	48.274608691701
26	64467	83.453152	58.665372714039
26	65424	84.458856	48.274608691701
26	66337	85.515312	58.665372714039
26	67294	86.521016	48.274608691701
26	68207	87.577472	58.665372714039
26	69164	88.583176	48.274608691701
26	70077	89.639632	58.665372714039
26	71034	90.645336	48.274608691701
26	71947	91.701792	58.665372714039
26	72904	92.707496	48.274608691701
26	73817	93.763952	58.665372714039
26	74774	94.769656	48.274608691701
26	75687	95.826112	58.665372714039
26	76644	96.831816	48.274608691701
26	77557	97.888272	58.665372714039
26	78514	98.893976	48.274608691701
27	66	0	12354.73052024
27	360	1.02568	135779.95887807
27	1165	2.262976	632392.83129032
27	2119	3.26868	579295.30430042
27	3035	4.325136	703984.47256847
27	3989	5.33084	579295.30430042
27	4905	6.387296	703984.47256847
27	5859	7.393	579295.30430042
27	6775	8.449456	703984.47256847
27	7590	9.45516	533860.37847293
27	8029	10.511616	223067.07529969
27	8704	11.748912	378244.17116034
27	9374	12.986208	548869.24979915
27	10158	13.991912	442990.52681796
27	11009	15.048368	668188.65192939
27	11963	16.054072	579295.30430042
27	12879	17.110528	703984.47256847
27	13833	18.116232	579295.30430042
27	14749	19.172688	703984.47256847
27	15703	20.178392	579295.30430042
27	16619	21.234848	703984.47256847
27	17573	22.240552	579295.30430042
27	18476	23.297008	692052.53235544
27	19008	24.302712	279737.04717565
27	19632	25.50384	349148.46568646
27	20268	26.741136	525005.3693731
27	21009	27.74684	408914.33244735
27	21818	28.803296	644324.77150334
27	22759	29.809	567936.57284354
27	23675	30.865456	703984.47256847
27	24629	31.87116	579295.30430042
27	25545	32.927616	703984.47256847
27	26499	33.93332	579295.30430042
27	27415	34.989776	703984.47256847
27	28369	35.99548	579295.30430042
27	29285	37.051936	703984.47256847
27	30239	38.05764	579295.30430042
27	31155	39.114096	703984.47256847
27	32109	40.1198	579295.30430042
27	33025	41.176256	703984.47256847
27	33979	42.18196	579295.30430042
27	34895	43.238416	703984.47256847
27	35789	44.24412	567936.57284354
27	36181	45.300576	286366.5651126
27	36718	46.30628	312849.01166624
27	37099	47.495352	212502.10135651
27	37511	48.732648	334094.3259647
27	38041	49.738352	306685.74933551
27	38632	50.794808	453413.72809495
27	39354	51.800512	442990.52681796
27	40133	52.856968	597233.61390041
27	41046	53.8616	567360.86420407
27	41905	54.919128	668901.64756846
27	42315	55.92376	286366.5651126
27	42849	56.929464	279385.63814545
27	43485	58.0462	525005.3693731
27	44226	59.051904	408914.33244735
27	45035	60.10836	644324.77150334
27	45976	61.114064	567936.57284354
27	46892	62.17052	703984.47256847
27	47846	63.176224	579295.30430042
27	48397	64.23268	317381.29317319
27	49021	65.5182	349148.46568646
27	49657	66.755496	525005.3693731
27	50398	67.7612	408914.33244735
27	51207	68.817656	644324.77150334
27	52148	69.82336	567936.57284354
27	53064	70.879816	703984.47256847
27	54018	71.88552	579295.30430042
27	54934	72.941976	703984.47256847
27	55888	73.94768	579295.30430042
27	56804	75.004136	703984.47256847
27	57758	76.00984	579295.30430042
27	58674	77.066296	703984.47256847
27	59628	78.072	579295.30430042
27	60544	79.128456	703984.47256847
27	61498	80.13416	579295.30430042
27	62414	81.190616	703984.47256847
27	63368	82.19632	579295.30430042
27	64284	83.252776	703984.47256847
27	65238	84.25848	579295.30430042
27	66154	85.314936	703984.47256847
27	67108	86.32064	579295.30430042
27	68024	87.377096	703984.47256847
27	68978	88.3828	579295.30430042
27	69894	89.439256	703984.47256847
27	70848	90.44496	579295.30430042
27	71764	91.501416	703984.47256847
27	72718	92.50712	579295.30430042
27	73634	93.563576	703984.47256847
27	74588	94.56928	579295.30430042
27	75504	95.625736	703984.47256847
27	76458	96.63144	579295.30430042
27	77374	97.687896	703984.47256847
27	78328	98.6936	579295.30430042
28	66	0	2.9248888542235
28	360	1.02568	11.314996573172
28	1165	2.262976	52.699402607527
28	2119	3.26868	48.274608691701
28	3035	4.325136	58.665372714039
28	3989	5.33084	48.274608691701
28	4905	6.387296	58.665372714039
28	5859	7.393	48.274608691701
28	6775	8.449456	58.665372714039
28	7590	9.45516	44.488364872744
28	8029	10.511616	18.58892294164
28	8704	11.748912	31.520347596695
28	9374	12.986208	45.739104149929
28	10158	13.991912	36.91587723483
28	11009	15.048368	55.682387660783
28	11963	16.054072	48.274608691701
28	12879	17.110528	58.665372714039
28	13833	18.116232	48.274608691701
28	14749	19.172688	58.665372714039
28	15703	20.178392	48.274608691701
28	16619	21.234848	58.665372714039
28	17573	22.240552	48.274608691701
28	18476	23.297008	57.671044362954
28	19008	24.302712	23.311420597971
28	19632	25.50384	29.095705473872
28	20268	26.741136	43.750447447758
28	21009	27.74684	34.076194370613
28	21818	28.803296	53.693730958612
28	22759	29.809	47.328047736962
28	23675	30.865456	58.665372714039
28	24629	31.87116	48.274608691701
28	25545	32.927616	58.665372714039
28	26499	33.93332	48.274608691701
28	27415	34.989776	58.665372714039
28	28369	35.99548	48.274608691701
28	29285	37.051936	58.665372714039
28	30239	38.05764	48.274608691701
28	31155	39.114096	58.665372714039
28	32109	40.1198	48.274608691701
28	33025	41.176256	58.665372714039
28	33979	42.18196	48.274608691701
28	34895	43.238416	58.665372714039
28	35789	44.24412	47.328047736962
28	36181	45.300576	23.86388042605
28	36718	46.30628	26.070750972187
28	37099	47.495352	17.7807089007
28	37511	48.732648	27.841193830391
28	38041	49.738352	25.55714577796
28	38632	50.794808	37.784477341246
28	39354	51.800512	36.91587723483
28	40133	52.856968	49.769467825034
28	41046	53.8616	47.280072017006
28	41905	54.919128	55.741803964039
28	42315	55.92376	23.86388042605
28	42849	56.929464	23.282136512121
28	43485	58.0462	43.750447447758
28	44226	59.051904	34.076194370613
28	45035	60.10836	53.693730958612
28	45976	61.114064	47.328047736962
28	46892	62.17052	58.665372714039
28	47846	63.176224	48.274608691701
28	48397	64.23268	26.448441097766
28	49021	65.5182	29.095705473872
28	49657	66.755496	43.750447447758
28	50398	67.7612	34.076194370613
28	51207	68.817656	53.693730958612
28	52148	69.82336	47.328047736962
28	53064	70.879816	58.665372714039
28	54018	71.88552	48.274608691701
28	54934	72.941976	58.665372714039
28	55888	73.94768	48.274608691701
28	56804	75.004136	58.665372714039
28	57758	76.00984	48.274608691701
28	58674	77.066296	58.665372714039
28	59628	78.072	48.274608691701
28	60544	79.128456	58.665372714039
28	61498	80.13416	48.274608691701
28	62414	81.190616	58.665372714039
28	63368	82.19632	48.274608691701
28	64284	83.252776	58.665372714039
28	65238	84.25848	48.274608691701
28	66154	85.314936	58.665372714039
28	67108	86.32064	48.274608691701
28	68024	87.377096	58.665372714039
28	68978	88.3828	48.274608691701
28	69894	89.439256	58.665372714039
28	70848	90.44496	48.274608691701
28	71764	91.501416	58.665372714039
28	72718	92.50712	48.274608691701
28	73634	93.563576	58.665372714039
28	74588	94.56928	48.274608691701
28	75504	95.625736	58.665372714039
28	76458	96.63144	48.274608691701
28	77374	97.687896	58.665372714039
28	78328	98.6936	48.274608691701
