version 2
run sim_100s-9-20160524-12:08:55-3504
attr configname sim_100s
attr datetime 20160524-12:08:55
attr experiment sim_100s
attr inifile omnetpp.ini
attr iterationvars $simtime=100
attr iterationvars2 "$simtime=100, $repetition=9"
attr measurement $simtime=100
attr network Network
attr processid 3504
attr repetition 9
attr replication #9
attr resultdir results
attr runnumber 9
attr seedset 9
attr simtime 100

vector 27  Network.server.ppp[0].inputHook[0]  "thruput (bit/sec)"  ETV
vector 28  Network.server.ppp[0].inputHook[0]  packet/sec  ETV
vector 25  Network.client.ppp[0].inputHook[0]  "thruput (bit/sec)"  ETV
vector 26  Network.client.ppp[0].inputHook[0]  packet/sec  ETV
25	84	0	548.09894490953
25	504	1.226056	3620.7989034152
25	1348	2.463352	16863.808834409
25	2305	3.469056	15447.874781344
25	3218	4.525512	18772.919268493
25	4175	5.531216	15447.874781344
25	5088	6.587672	18772.919268493
25	6045	7.593376	15447.874781344
25	6958	8.649832	18772.919268493
25	7915	9.655536	15447.874781344
25	8828	10.711992	18772.919268493
25	9785	11.717696	15447.874781344
25	10698	12.774152	18772.919268493
25	11655	13.779856	15447.874781344
25	12568	14.836312	18772.919268493
25	13525	15.842016	15447.874781344
25	14438	16.898472	18772.919268493
25	15395	17.904176	15447.874781344
25	16308	18.960632	18772.919268493
25	17265	19.966336	15447.874781344
25	18178	21.022792	18772.919268493
25	19135	22.028496	15447.874781344
25	20048	23.084952	18772.919268493
25	21005	24.090656	15447.874781344
25	21918	25.147112	18772.919268493
25	22574	26.152816	10446.93284581
25	23178	27.378056	8793.3687654369
25	23931	28.615352	10862.396710246
25	24640	29.852648	15272.883472672
25	25490	30.858352	12721.779231695
25	26390	31.914808	18454.734196145
25	27347	32.920512	15447.874781344
25	28260	33.976968	18772.919268493
25	29217	34.982672	15447.874781344
25	30130	36.039128	18772.919268493
25	31087	37.044832	15447.874781344
25	32000	38.101288	18772.919268493
25	32957	39.106992	15447.874781344
25	33870	40.163448	18772.919268493
25	34827	41.169152	15447.874781344
25	35740	42.225608	18772.919268493
25	36697	43.231312	15447.874781344
25	37610	44.287768	18772.919268493
25	38567	45.293472	15447.874781344
25	39480	46.349928	18772.919268493
25	40437	47.355632	15447.874781344
25	41350	48.412088	18772.919268493
25	42307	49.417792	15447.874781344
25	43220	50.474248	18772.919268493
25	44177	51.479952	15447.874781344
25	45090	52.536408	18772.919268493
25	46047	53.542112	15447.874781344
25	46960	54.598568	18772.919268493
25	47599	55.604272	10286.980375607
25	48203	56.817456	8793.3687654369
25	48956	58.054752	10862.396710246
25	49665	59.292048	15272.883472672
25	50515	60.297752	12721.779231695
25	51415	61.354208	18454.734196145
25	52372	62.359912	15447.874781344
25	53285	63.416368	18772.919268493
25	54242	64.422072	15447.874781344
25	55155	65.478528	18772.919268493
25	56112	66.484232	15447.874781344
25	57025	67.540688	18772.919268493
25	57982	68.546392	15447.874781344
25	58895	69.602848	18772.919268493
25	59852	70.608552	15447.874781344
25	60765	71.665008	18772.919268493
25	61722	72.670712	15447.874781344
25	62635	73.727168	18772.919268493
25	63592	74.732872	15447.874781344
25	64505	75.789328	18772.919268493
25	65462	76.795032	15447.874781344
25	66375	77.851488	18772.919268493
25	67332	78.857192	15447.874781344
25	68245	79.913648	18772.919268493
25	69202	80.919352	15447.874781344
25	70115	81.975808	18772.919268493
25	71072	82.981512	15447.874781344
25	71985	84.037968	18772.919268493
25	72942	85.043672	15447.874781344
25	73855	86.100128	18772.919268493
25	74579	87.105832	11056.457033728
25	75183	88.379296	8793.3687654369
25	75936	89.616592	10862.396710246
25	76645	90.853888	15272.883472672
25	77495	91.859592	12721.779231695
25	78395	92.916048	18454.734196145
25	79352	93.921752	15447.874781344
25	80265	94.978208	18772.919268493
25	81222	95.983912	15447.874781344
25	82135	97.040368	18772.919268493
25	83092	98.046072	15447.874781344
26	84	0	1.6312468598498
26	504	1.226056	11.314996573172
26	1348	2.463352	52.699402607527
26	2305	3.469056	48.274608691701
26	3218	4.525512	58.665372714039
26	4175	5.531216	48.274608691701
26	5088	6.587672	58.665372714039
26	6045	7.593376	48.274608691701
26	6958	8.649832	58.665372714039
26	7915	9.655536	48.274608691701
26	8828	10.711992	58.665372714039
26	9785	11.717696	48.274608691701
26	10698	12.774152	58.665372714039
26	11655	13.779856	48.274608691701
26	12568	14.836312	58.665372714039
26	13525	15.842016	48.274608691701
26	14438	16.898472	58.665372714039
26	15395	17.904176	48.274608691701
26	16308	18.960632	58.665372714039
26	17265	19.966336	48.274608691701
26	18178	21.022792	58.665372714039
26	19135	22.028496	48.274608691701
26	20048	23.084952	58.665372714039
26	21005	24.090656	48.274608691701
26	21918	25.147112	58.665372714039
26	22574	26.152816	32.646665143156
26	23178	27.378056	27.47927739199
26	23931	28.615352	33.944989719517
26	24640	29.852648	47.7277608521
26	25490	30.858352	39.755560099048
26	26390	31.914808	57.671044362954
26	27347	32.920512	48.274608691701
26	28260	33.976968	58.665372714039
26	29217	34.982672	48.274608691701
26	30130	36.039128	58.665372714039
26	31087	37.044832	48.274608691701
26	32000	38.101288	58.665372714039
26	32957	39.106992	48.274608691701
26	33870	40.163448	58.665372714039
26	34827	41.169152	48.274608691701
26	35740	42.225608	58.665372714039
26	36697	43.231312	48.274608691701
26	37610	44.287768	58.665372714039
26	38567	45.293472	48.274608691701
26	39480	46.349928	58.665372714039
26	40437	47.355632	48.274608691701
26	41350	48.412088	58.665372714039
26	42307	49.417792	48.274608691701
26	43220	50.474248	58.665372714039
26	44177	51.479952	48.274608691701
26	45090	52.536408	58.665372714039
26	46047	53.542112	48.274608691701
26	46960	54.598568	58.665372714039
26	47599	55.604272	32.146813673771
26	48203	56.817456	27.47927739199
26	48956	58.054752	33.944989719517
26	49665	59.292048	47.7277608521
26	50515	60.297752	39.755560099048
26	51415	61.354208	57.671044362954
26	52372	62.359912	48.274608691701
26	53285	63.416368	58.665372714039
26	54242	64.422072	48.274608691701
26	55155	65.478528	58.665372714039
26	56112	66.484232	48.274608691701
26	57025	67.540688	58.665372714039
26	57982	68.546392	48.274608691701
26	58895	69.602848	58.665372714039
26	59852	70.608552	48.274608691701
26	60765	71.665008	58.665372714039
26	61722	72.670712	48.274608691701
26	62635	73.727168	58.665372714039
26	63592	74.732872	48.274608691701
26	64505	75.789328	58.665372714039
26	65462	76.795032	48.274608691701
26	66375	77.851488	58.665372714039
26	67332	78.857192	48.274608691701
26	68245	79.913648	58.665372714039
26	69202	80.919352	48.274608691701
26	70115	81.975808	58.665372714039
26	71072	82.981512	48.274608691701
26	71985	84.037968	58.665372714039
26	72942	85.043672	48.274608691701
26	73855	86.100128	58.665372714039
26	74579	87.105832	34.551428230401
26	75183	88.379296	27.47927739199
26	75936	89.616592	33.944989719517
26	76645	90.853888	47.7277608521
26	77495	91.859592	39.755560099048
26	78395	92.916048	57.671044362954
26	79352	93.921752	48.274608691701
26	80265	94.978208	58.665372714039
26	81222	95.983912	48.274608691701
26	82135	97.040368	58.665372714039
26	83092	98.046072	48.274608691701
27	66	0	12354.73052024
27	360	1.02568	135779.95887807
27	1165	2.262976	632392.83129032
27	2119	3.26868	579295.30430042
27	3035	4.325136	703984.47256847
27	3989	5.33084	579295.30430042
27	4905	6.387296	703984.47256847
27	5859	7.393	579295.30430042
27	6775	8.449456	703984.47256847
27	7729	9.45516	579295.30430042
27	8645	10.511616	703984.47256847
27	9599	11.51732	579295.30430042
27	10515	12.573776	703984.47256847
27	11469	13.57948	579295.30430042
27	12385	14.635936	703984.47256847
27	13339	15.64164	579295.30430042
27	14255	16.698096	703984.47256847
27	15209	17.7038	579295.30430042
27	16125	18.760256	703984.47256847
27	17079	19.76596	579295.30430042
27	17995	20.822416	703984.47256847
27	18949	21.82812	579295.30430042
27	19865	22.884576	703984.47256847
27	20819	23.89028	579295.30430042
27	21735	24.946736	703984.47256847
27	22475	25.95244	391759.98171787
27	23061	27.17768	329751.32870388
27	23787	28.414976	407339.87663421
27	24491	29.652272	572733.1302252
27	25318	30.657976	477066.72118858
27	26207	31.714432	692052.53235544
27	27161	32.720136	579295.30430042
27	28077	33.776592	703984.47256847
27	29031	34.782296	579295.30430042
27	29947	35.838752	703984.47256847
27	30901	36.844456	579295.30430042
27	31817	37.900912	703984.47256847
27	32771	38.906616	579295.30430042
27	33687	39.963072	703984.47256847
27	34641	40.968776	579295.30430042
27	35557	42.025232	703984.47256847
27	36511	43.030936	579295.30430042
27	37427	44.087392	703984.47256847
27	38381	45.093096	579295.30430042
27	39297	46.149552	703984.47256847
27	40251	47.155256	579295.30430042
27	41167	48.211712	703984.47256847
27	42121	49.217416	579295.30430042
27	43037	50.273872	703984.47256847
27	43991	51.279576	579295.30430042
27	44907	52.336032	703984.47256847
27	45861	53.341736	579295.30430042
27	46777	54.398192	703984.47256847
27	47500	55.403896	385761.76408525
27	48086	56.61708	329751.32870388
27	48812	57.854376	407339.87663421
27	49516	59.091672	572733.1302252
27	50343	60.097376	477066.72118858
27	51232	61.153832	692052.53235544
27	52186	62.159536	579295.30430042
27	53102	63.215992	703984.47256847
27	54056	64.221696	579295.30430042
27	54972	65.278152	703984.47256847
27	55926	66.283856	579295.30430042
27	56842	67.340312	703984.47256847
27	57796	68.346016	579295.30430042
27	58712	69.402472	703984.47256847
27	59666	70.408176	579295.30430042
27	60582	71.464632	703984.47256847
27	61536	72.470336	579295.30430042
27	62452	73.526792	703984.47256847
27	63406	74.532496	579295.30430042
27	64322	75.588952	703984.47256847
27	65276	76.594656	579295.30430042
27	66192	77.651112	703984.47256847
27	67146	78.656816	579295.30430042
27	68062	79.713272	703984.47256847
27	69016	80.718976	579295.30430042
27	69932	81.775432	703984.47256847
27	70886	82.781136	579295.30430042
27	71802	83.837592	703984.47256847
27	72756	84.843296	579295.30430042
27	73672	85.899752	703984.47256847
27	74480	86.905456	414617.13876482
27	75066	88.17892	329751.32870388
27	75792	89.416216	407339.87663421
27	76496	90.653512	572733.1302252
27	77323	91.659216	477066.72118858
27	78212	92.715672	692052.53235544
27	79166	93.721376	579295.30430042
27	80082	94.777832	703984.47256847
27	81036	95.783536	579295.30430042
27	81952	96.839992	703984.47256847
27	82906	97.845696	579295.30430042
27	83822	98.902152	703984.47256847
28	66	0	2.9248888542235
28	360	1.02568	11.314996573172
28	1165	2.262976	52.699402607527
28	2119	3.26868	48.274608691701
28	3035	4.325136	58.665372714039
28	3989	5.33084	48.274608691701
28	4905	6.387296	58.665372714039
28	5859	7.393	48.274608691701
28	6775	8.449456	58.665372714039
28	7729	9.45516	48.274608691701
28	8645	10.511616	58.665372714039
28	9599	11.51732	48.274608691701
28	10515	12.573776	58.665372714039
28	11469	13.57948	48.274608691701
28	12385	14.635936	58.665372714039
28	13339	15.64164	48.274608691701
28	14255	16.698096	58.665372714039
28	15209	17.7038	48.274608691701
28	16125	18.760256	58.665372714039
28	17079	19.76596	48.274608691701
28	17995	20.822416	58.665372714039
28	18949	21.82812	48.274608691701
28	19865	22.884576	58.665372714039
28	20819	23.89028	48.274608691701
28	21735	24.946736	58.665372714039
28	22475	25.95244	32.646665143156
28	23061	27.17768	27.47927739199
28	23787	28.414976	33.944989719517
28	24491	29.652272	47.7277608521
28	25318	30.657976	39.755560099048
28	26207	31.714432	57.671044362954
28	27161	32.720136	48.274608691701
28	28077	33.776592	58.665372714039
28	29031	34.782296	48.274608691701
28	29947	35.838752	58.665372714039
28	30901	36.844456	48.274608691701
28	31817	37.900912	58.665372714039
28	32771	38.906616	48.274608691701
28	33687	39.963072	58.665372714039
28	34641	40.968776	48.274608691701
28	35557	42.025232	58.665372714039
28	36511	43.030936	48.274608691701
28	37427	44.087392	58.665372714039
28	38381	45.093096	48.274608691701
28	39297	46.149552	58.665372714039
28	40251	47.155256	48.274608691701
28	41167	48.211712	58.665372714039
28	42121	49.217416	48.274608691701
28	43037	50.273872	58.665372714039
28	43991	51.279576	48.274608691701
28	44907	52.336032	58.665372714039
28	45861	53.341736	48.274608691701
28	46777	54.398192	58.665372714039
28	47500	55.403896	32.146813673771
28	48086	56.61708	27.47927739199
28	48812	57.854376	33.944989719517
28	49516	59.091672	47.7277608521
28	50343	60.097376	39.755560099048
28	51232	61.153832	57.671044362954
28	52186	62.159536	48.274608691701
28	53102	63.215992	58.665372714039
28	54056	64.221696	48.274608691701
28	54972	65.278152	58.665372714039
28	55926	66.283856	48.274608691701
28	56842	67.340312	58.665372714039
28	57796	68.346016	48.274608691701
28	58712	69.402472	58.665372714039
28	59666	70.408176	48.274608691701
28	60582	71.464632	58.665372714039
28	61536	72.470336	48.274608691701
28	62452	73.526792	58.665372714039
28	63406	74.532496	48.274608691701
28	64322	75.588952	58.665372714039
28	65276	76.594656	48.274608691701
28	66192	77.651112	58.665372714039
28	67146	78.656816	48.274608691701
28	68062	79.713272	58.665372714039
28	69016	80.718976	48.274608691701
28	69932	81.775432	58.665372714039
28	70886	82.781136	48.274608691701
28	71802	83.837592	58.665372714039
28	72756	84.843296	48.274608691701
28	73672	85.899752	58.665372714039
28	74480	86.905456	34.551428230401
28	75066	88.17892	27.47927739199
28	75792	89.416216	33.944989719517
28	76496	90.653512	47.7277608521
28	77323	91.659216	39.755560099048
28	78212	92.715672	57.671044362954
28	79166	93.721376	48.274608691701
28	80082	94.777832	58.665372714039
28	81036	95.783536	48.274608691701
28	81952	96.839992	58.665372714039
28	82906	97.845696	48.274608691701
28	83822	98.902152	58.665372714039
