version 2
run sim_100s-2-20160524-12:08:49-464
attr configname sim_100s
attr datetime 20160524-12:08:49
attr experiment sim_100s
attr inifile omnetpp.ini
attr iterationvars $simtime=100
attr iterationvars2 "$simtime=100, $repetition=2"
attr measurement $simtime=100
attr network Network
attr processid 464
attr repetition 2
attr replication #2
attr resultdir results
attr runnumber 2
attr seedset 2
attr simtime 100

vector 27  Network.server.ppp[0].inputHook[0]  "thruput (bit/sec)"  ETV
vector 28  Network.server.ppp[0].inputHook[0]  packet/sec  ETV
vector 25  Network.client.ppp[0].inputHook[0]  "thruput (bit/sec)"  ETV
vector 26  Network.client.ppp[0].inputHook[0]  packet/sec  ETV
25	84	0	548.09894490953
25	504	1.226056	3620.7989034152
25	1348	2.463352	16863.808834409
25	2293	3.469056	15447.874781344
25	2769	4.525512	10818.292459809
25	3373	5.531216	8793.3687654369
25	4126	6.768512	10862.396710246
25	4835	8.005808	15272.883472672
25	5685	9.011512	12721.779231695
25	6585	10.067968	18454.734196145
25	7542	11.073672	15447.874781344
25	8455	12.130128	18772.919268493
25	9412	13.135832	15447.874781344
25	10325	14.192288	18772.919268493
25	11282	15.197992	15447.874781344
25	12161	16.254448	18454.734196145
25	12664	17.260152	7835.1996343574
25	13315	18.485392	9310.6257516391
25	13956	19.722688	14000.143183283
25	14722	20.728392	10904.382198596
25	15549	21.784848	17181.993906756
25	16502	22.790552	15144.975275828
25	17415	23.847008	18772.919268493
25	18372	24.852712	15447.874781344
25	19285	25.909168	18772.919268493
25	20242	26.914872	15447.874781344
25	21155	27.971328	18772.919268493
25	22112	28.977032	15447.874781344
25	23025	30.033488	18772.919268493
25	23982	31.039192	15447.874781344
25	24895	32.095648	18772.919268493
25	25852	33.101352	15447.874781344
25	26765	34.157808	18772.919268493
25	27722	35.163512	15447.874781344
25	28635	36.219968	18772.919268493
25	29291	37.225672	10446.93284581
25	29895	38.450912	8793.3687654369
25	30648	39.688208	10862.396710246
25	31357	40.925504	15272.883472672
25	32207	41.931208	12721.779231695
25	33107	42.987664	18454.734196145
25	34064	43.993368	15447.874781344
25	34977	45.049824	18772.919268493
25	35934	46.055528	15447.874781344
25	36847	47.111984	18772.919268493
25	37804	48.117688	15447.874781344
25	38717	49.174144	18772.919268493
25	39674	50.179848	15447.874781344
25	40587	51.236304	18772.919268493
25	41544	52.242008	15447.874781344
25	42457	53.298464	18772.919268493
25	43414	54.304168	15447.874781344
25	44327	55.360624	18772.919268493
25	45284	56.366328	15447.874781344
25	46197	57.422784	18772.919268493
25	47154	58.428488	15447.874781344
25	48067	59.484944	18772.919268493
25	49024	60.490648	15447.874781344
25	49937	61.547104	18772.919268493
25	50894	62.552808	15447.874781344
25	51807	63.609264	18772.919268493
25	52764	64.614968	15447.874781344
25	53608	65.671424	18454.734196145
25	54027	66.677128	6451.3414582837
25	54678	67.817976	9310.6257516391
25	55319	69.055272	14000.143183283
25	56085	70.060976	10904.382198596
25	56912	71.117432	17181.993906756
25	57865	72.123136	15144.975275828
25	58778	73.179592	18772.919268493
25	59502	74.185296	11056.457033728
25	60106	75.45876	8793.3687654369
25	60859	76.696056	10862.396710246
25	61568	77.933352	15272.883472672
25	62418	78.939056	12721.779231695
25	63318	79.995512	18454.734196145
25	64275	81.001216	15447.874781344
25	65188	82.057672	18772.919268493
25	66145	83.063376	15447.874781344
25	67058	84.119832	18772.919268493
25	68015	85.125536	15447.874781344
25	68928	86.181992	18772.919268493
25	69885	87.187696	15447.874781344
25	70798	88.244152	18772.919268493
25	71755	89.249856	15447.874781344
25	72668	90.306312	18772.919268493
25	73625	91.312016	15447.874781344
25	74538	92.368472	18772.919268493
25	75495	93.374176	15447.874781344
25	76408	94.430632	18772.919268493
25	77365	95.436336	15447.874781344
25	78278	96.492792	18772.919268493
25	79235	97.498496	15447.874781344
25	80148	98.554952	18772.919268493
26	84	0	1.6312468598498
26	504	1.226056	11.314996573172
26	1348	2.463352	52.699402607527
26	2293	3.469056	48.274608691701
26	2769	4.525512	33.807163936904
26	3373	5.531216	27.47927739199
26	4126	6.768512	33.944989719517
26	4835	8.005808	47.7277608521
26	5685	9.011512	39.755560099048
26	6585	10.067968	57.671044362954
26	7542	11.073672	48.274608691701
26	8455	12.130128	58.665372714039
26	9412	13.135832	48.274608691701
26	10325	14.192288	58.665372714039
26	11282	15.197992	48.274608691701
26	12161	16.254448	57.671044362954
26	12664	17.260152	24.484998857367
26	13315	18.485392	29.095705473872
26	13956	19.722688	43.750447447758
26	14722	20.728392	34.076194370613
26	15549	21.784848	53.693730958612
26	16502	22.790552	47.328047736962
26	17415	23.847008	58.665372714039
26	18372	24.852712	48.274608691701
26	19285	25.909168	58.665372714039
26	20242	26.914872	48.274608691701
26	21155	27.971328	58.665372714039
26	22112	28.977032	48.274608691701
26	23025	30.033488	58.665372714039
26	23982	31.039192	48.274608691701
26	24895	32.095648	58.665372714039
26	25852	33.101352	48.274608691701
26	26765	34.157808	58.665372714039
26	27722	35.163512	48.274608691701
26	28635	36.219968	58.665372714039
26	29291	37.225672	32.646665143156
26	29895	38.450912	27.47927739199
26	30648	39.688208	33.944989719517
26	31357	40.925504	47.7277608521
26	32207	41.931208	39.755560099048
26	33107	42.987664	57.671044362954
26	34064	43.993368	48.274608691701
26	34977	45.049824	58.665372714039
26	35934	46.055528	48.274608691701
26	36847	47.111984	58.665372714039
26	37804	48.117688	48.274608691701
26	38717	49.174144	58.665372714039
26	39674	50.179848	48.274608691701
26	40587	51.236304	58.665372714039
26	41544	52.242008	48.274608691701
26	42457	53.298464	58.665372714039
26	43414	54.304168	48.274608691701
26	44327	55.360624	58.665372714039
26	45284	56.366328	48.274608691701
26	46197	57.422784	58.665372714039
26	47154	58.428488	48.274608691701
26	48067	59.484944	58.665372714039
26	49024	60.490648	48.274608691701
26	49937	61.547104	58.665372714039
26	50894	62.552808	48.274608691701
26	51807	63.609264	58.665372714039
26	52764	64.614968	48.274608691701
26	53608	65.671424	57.671044362954
26	54027	66.677128	20.160442057136
26	54678	67.817976	29.095705473872
26	55319	69.055272	43.750447447758
26	56085	70.060976	34.076194370613
26	56912	71.117432	53.693730958612
26	57865	72.123136	47.328047736962
26	58778	73.179592	58.665372714039
26	59502	74.185296	34.551428230401
26	60106	75.45876	27.47927739199
26	60859	76.696056	33.944989719517
26	61568	77.933352	47.7277608521
26	62418	78.939056	39.755560099048
26	63318	79.995512	57.671044362954
26	64275	81.001216	48.274608691701
26	65188	82.057672	58.665372714039
26	66145	83.063376	48.274608691701
26	67058	84.119832	58.665372714039
26	68015	85.125536	48.274608691701
26	68928	86.181992	58.665372714039
26	69885	87.187696	48.274608691701
26	70798	88.244152	58.665372714039
26	71755	89.249856	48.274608691701
26	72668	90.306312	58.665372714039
26	73625	91.312016	48.274608691701
26	74538	92.368472	58.665372714039
26	75495	93.374176	48.274608691701
26	76408	94.430632	58.665372714039
26	77365	95.436336	48.274608691701
26	78278	96.492792	58.665372714039
26	79235	97.498496	48.274608691701
26	80148	98.554952	58.665372714039
27	66	0	12354.73052024
27	360	1.02568	135779.95887807
27	1165	2.262976	632392.83129032
27	2119	3.26868	579295.30430042
27	2670	4.325136	405685.96724285
27	3256	5.33084	329751.32870388
27	3982	6.568136	407339.87663421
27	4686	7.805432	572733.1302252
27	5513	8.811136	477066.72118858
27	6402	9.867592	692052.53235544
27	7356	10.873296	579295.30430042
27	8272	11.929752	703984.47256847
27	9226	12.935456	579295.30430042
27	10142	13.991912	703984.47256847
27	11096	14.997616	579295.30430042
27	12001	16.054072	692052.53235544
27	12565	17.059776	293819.9862884
27	13189	18.285016	349148.46568646
27	13825	19.522312	525005.3693731
27	14566	20.528016	408914.33244735
27	15375	21.584472	644324.77150334
27	16316	22.590176	567936.57284354
27	17232	23.646632	703984.47256847
27	18186	24.652336	579295.30430042
27	19102	25.708792	703984.47256847
27	20056	26.714496	579295.30430042
27	20972	27.770952	703984.47256847
27	21926	28.776656	579295.30430042
27	22842	29.833112	703984.47256847
27	23796	30.838816	579295.30430042
27	24712	31.895272	703984.47256847
27	25666	32.900976	579295.30430042
27	26582	33.957432	703984.47256847
27	27536	34.963136	579295.30430042
27	28452	36.019592	703984.47256847
27	29192	37.025296	391759.98171787
27	29778	38.250536	329751.32870388
27	30504	39.487832	407339.87663421
27	31208	40.725128	572733.1302252
27	32035	41.730832	477066.72118858
27	32924	42.787288	692052.53235544
27	33878	43.792992	579295.30430042
27	34794	44.849448	703984.47256847
27	35748	45.855152	579295.30430042
27	36664	46.911608	703984.47256847
27	37618	47.917312	579295.30430042
27	38534	48.973768	703984.47256847
27	39488	49.979472	579295.30430042
27	40404	51.035928	703984.47256847
27	41358	52.041632	579295.30430042
27	42274	53.098088	703984.47256847
27	43228	54.103792	579295.30430042
27	44144	55.160248	703984.47256847
27	45098	56.165952	579295.30430042
27	46014	57.222408	703984.47256847
27	46968	58.228112	579295.30430042
27	47884	59.284568	703984.47256847
27	48838	60.290272	579295.30430042
27	49754	61.346728	703984.47256847
27	50708	62.352432	579295.30430042
27	51624	63.408888	703984.47256847
27	52578	64.414592	579295.30430042
27	53476	65.471048	692052.53235544
27	53928	66.476752	241925.30468564
27	54552	67.6176	349148.46568646
27	55188	68.854896	525005.3693731
27	55929	69.8606	408914.33244735
27	56738	70.917056	644324.77150334
27	57679	71.92276	567936.57284354
27	58595	72.979216	703984.47256847
27	59403	73.98492	414617.13876482
27	59989	75.258384	329751.32870388
27	60715	76.49568	407339.87663421
27	61419	77.732976	572733.1302252
27	62246	78.73868	477066.72118858
27	63135	79.795136	692052.53235544
27	64089	80.80084	579295.30430042
27	65005	81.857296	703984.47256847
27	65959	82.863	579295.30430042
27	66875	83.919456	703984.47256847
27	67829	84.92516	579295.30430042
27	68745	85.981616	703984.47256847
27	69699	86.98732	579295.30430042
27	70615	88.043776	703984.47256847
27	71569	89.04948	579295.30430042
27	72485	90.105936	703984.47256847
27	73439	91.11164	579295.30430042
27	74355	92.168096	703984.47256847
27	75309	93.1738	579295.30430042
27	76225	94.230256	703984.47256847
27	77179	95.23596	579295.30430042
27	78095	96.292416	703984.47256847
27	79049	97.29812	579295.30430042
27	79965	98.354576	703984.47256847
28	66	0	2.9248888542235
28	360	1.02568	11.314996573172
28	1165	2.262976	52.699402607527
28	2119	3.26868	48.274608691701
28	2670	4.325136	33.807163936904
28	3256	5.33084	27.47927739199
28	3982	6.568136	33.944989719517
28	4686	7.805432	47.7277608521
28	5513	8.811136	39.755560099048
28	6402	9.867592	57.671044362954
28	7356	10.873296	48.274608691701
28	8272	11.929752	58.665372714039
28	9226	12.935456	48.274608691701
28	10142	13.991912	58.665372714039
28	11096	14.997616	48.274608691701
28	12001	16.054072	57.671044362954
28	12565	17.059776	24.484998857367
28	13189	18.285016	29.095705473872
28	13825	19.522312	43.750447447758
28	14566	20.528016	34.076194370613
28	15375	21.584472	53.693730958612
28	16316	22.590176	47.328047736962
28	17232	23.646632	58.665372714039
28	18186	24.652336	48.274608691701
28	19102	25.708792	58.665372714039
28	20056	26.714496	48.274608691701
28	20972	27.770952	58.665372714039
28	21926	28.776656	48.274608691701
28	22842	29.833112	58.665372714039
28	23796	30.838816	48.274608691701
28	24712	31.895272	58.665372714039
28	25666	32.900976	48.274608691701
28	26582	33.957432	58.665372714039
28	27536	34.963136	48.274608691701
28	28452	36.019592	58.665372714039
28	29192	37.025296	32.646665143156
28	29778	38.250536	27.47927739199
28	30504	39.487832	33.944989719517
28	31208	40.725128	47.7277608521
28	32035	41.730832	39.755560099048
28	32924	42.787288	57.671044362954
28	33878	43.792992	48.274608691701
28	34794	44.849448	58.665372714039
28	35748	45.855152	48.274608691701
28	36664	46.911608	58.665372714039
28	37618	47.917312	48.274608691701
28	38534	48.973768	58.665372714039
28	39488	49.979472	48.274608691701
28	40404	51.035928	58.665372714039
28	41358	52.041632	48.274608691701
28	42274	53.098088	58.665372714039
28	43228	54.103792	48.274608691701
28	44144	55.160248	58.665372714039
28	45098	56.165952	48.274608691701
28	46014	57.222408	58.665372714039
28	46968	58.228112	48.274608691701
28	47884	59.284568	58.665372714039
28	48838	60.290272	48.274608691701
28	49754	61.346728	58.665372714039
28	50708	62.352432	48.274608691701
28	51624	63.408888	58.665372714039
28	52578	64.414592	48.274608691701
28	53476	65.471048	57.671044362954
28	53928	66.476752	20.160442057136
28	54552	67.6176	29.095705473872
28	55188	68.854896	43.750447447758
28	55929	69.8606	34.076194370613
28	56738	70.917056	53.693730958612
28	57679	71.92276	47.328047736962
28	58595	72.979216	58.665372714039
28	59403	73.98492	34.551428230401
28	59989	75.258384	27.47927739199
28	60715	76.49568	33.944989719517
28	61419	77.732976	47.7277608521
28	62246	78.73868	39.755560099048
28	63135	79.795136	57.671044362954
28	64089	80.80084	48.274608691701
28	65005	81.857296	58.665372714039
28	65959	82.863	48.274608691701
28	66875	83.919456	58.665372714039
28	67829	84.92516	48.274608691701
28	68745	85.981616	58.665372714039
28	69699	86.98732	48.274608691701
28	70615	88.043776	58.665372714039
28	71569	89.04948	48.274608691701
28	72485	90.105936	58.665372714039
28	73439	91.11164	48.274608691701
28	74355	92.168096	58.665372714039
28	75309	93.1738	48.274608691701
28	76225	94.230256	58.665372714039
28	77179	95.23596	48.274608691701
28	78095	96.292416	58.665372714039
28	79049	97.29812	48.274608691701
28	79965	98.354576	58.665372714039
