version 2
run sim_1000s-0-20160604-23:02:33-3832
attr configname sim_1000s
attr datetime 20160604-23:02:33
attr experiment sim_1000s
attr inifile omnetpp.ini
attr iterationvars $simtime=1000
attr iterationvars2 "$simtime=1000, $repetition=0"
attr measurement $simtime=1000
attr network Network
attr processid 3832
attr repetition 0
attr replication #0
attr resultdir results
attr runnumber 0
attr seedset 0
attr simtime 1000

vector 37  Network.server.ppp[0].inputHook[0]  "thruput (bit/sec)"  ETV
vector 38  Network.server.ppp[0].inputHook[0]  packet/sec  ETV
37	1018	0	49296
37	2221	1.010372719884	69264
37	3290	2.01142151656	63648
37	4257	3.011679363842	51792
37	5243	4.017561110364	54912
37	6495	5.025226126562	72384
37	7536	6.025968934814	58032
37	8649	7.028289067893	65520
37	9704	8.039560208965	56784
37	10804	9.049932898793	62400
37	11775	10.067994914011	56784
37	12864	11.07248158248	61776
37	13943	12.076169435889	60528
37	15071	13.086255135586	63648
37	16204	14.094074008881	64272
37	17123	15.101160843045	51792
37	18425	16.107664946256	71136
37	19661	17.108471740785	71136
37	20584	18.113991679431	56784
37	21668	19.114914906622	61152
37	22810	20.127616589447	62400
37	23956	21.134500161246	67392
37	24968	22.138510002954	53664
37	26010	23.146918469767	57408
37	27140	24.150954393861	66144
37	28233	25.167141640278	63024
37	29379	26.179337151704	67392
37	30556	27.180800873764	63024
37	31861	28.18673405331	76752
37	33032	29.214752340859	66768
37	34213	30.230497024717	64272
37	35587	31.244268441492	78624
37	36601	32.244955343451	59904
37	37730	33.250709293299	62400
37	38780	34.278815506294	60528
37	39709	35.28340181004	53040
37	40656	36.288631506738	53040
37	41667	37.294819647909	58032
37	42792	38.312707457146	61776
37	43796	39.314087375421	58656
37	45009	40.316548057845	66768
37	46167	41.332638479811	67392
37	47365	42.345731000931	68640
37	48453	43.365046547165	58656
37	49602	44.376940074478	69264
37	50644	45.388114915316	57408
37	51869	46.391004357586	66768
37	52966	47.393937635281	64272
37	54014	48.395571902846	61152
37	55073	49.424573469908	61776
37	56058	50.43590244406	52416
37	57333	51.45725547357	73008
37	58568	52.468487615433	68016
37	59792	53.497709524275	67392
37	61031	54.508590097537	73008
37	62287	55.51134946594	69888
37	63434	56.5162546037	66768
37	64710	57.542440267969	72384
37	65803	58.549492327939	62400
37	67019	59.550141664876	68640
37	67924	60.551539917736	53664
37	69063	61.551973377006	60528
37	70426	62.555460182477	78000
37	71616	63.561745756023	69888
37	72729	64.568087116633	61776
37	73957	65.571020606438	68640
37	75190	66.576273244174	69264
37	76430	67.59866824055	72384
37	77707	68.603121039177	71760
37	78871	69.616192865855	63648
37	80145	70.622586728042	73632
37	81278	71.646664118613	68016
37	82355	72.646860663143	61152
37	83389	73.663162490806	55536
37	84638	74.663677306254	70512
37	85778	75.667600479526	67392
37	86872	76.671624510065	62400
37	88049	77.676143414089	66768
37	89198	78.678659651392	61776
37	90355	79.687894678195	64272
37	91604	80.707729404835	70512
37	92843	81.714277206121	73008
37	94031	82.748342409247	67392
37	94882	83.750313550613	49296
37	96173	84.754484251775	70512
37	97558	85.761411182145	79248
37	98763	86.76541834068	68016
37	100042	87.769633360684	74256
37	101280	88.785658288497	69888
37	102542	89.787275537755	73632
37	103704	90.801261238571	64896
37	104797	91.819706791195	59280
37	106064	92.824614809654	70512
37	107273	93.834406456124	73008
37	108339	94.846248618977	61152
37	109293	95.84681378935	52416
37	110302	96.886603752138	59280
37	111362	97.90775806257	57408
37	112351	98.915457955831	56784
37	113561	99.916821998052	68640
37	114820	100.927591885398	71760
37	115772	101.952405317391	49920
37	117093	102.960657174396	78000
37	118038	103.963031891934	54288
37	118974	104.977743827856	52416
37	120048	105.987274664349	59280
37	121395	107.008602378416	76752
37	122506	108.020757505384	66768
37	123729	109.023770199002	68640
37	124565	110.053520282111	47424
37	125566	111.064592292889	56784
37	126599	112.075245605297	59280
37	127777	113.07642288797	66144
37	128910	114.076967598723	63648
37	129918	115.077966777045	56784
37	131140	116.085081677216	68640
37	132347	117.121649603434	66768
37	133613	118.126163709789	74880
37	134591	119.145944020163	56160
37	135677	120.155094843943	59904
37	136727	121.175214060291	59904
37	137767	122.178836663742	58656
37	139198	123.23464930113	80496
37	140448	124.235921356091	69888
37	141500	125.244925875165	62400
37	142605	126.261423115939	63024
37	143773	127.266747599887	64272
37	144843	128.27990440555	63024
37	145868	129.285793533252	56784
37	147061	130.286035534568	68016
37	148154	131.290010392271	59280
37	149132	132.299558921706	59280
37	150214	133.312443500817	63024
37	151275	134.33298262329	56784
37	152460	135.342507932503	68640
37	153339	136.350043354961	51168
37	154263	137.365386118624	48048
37	155320	138.381447959921	59904
37	156414	139.386594202005	66144
37	157397	140.391849748637	53040
37	158444	141.410196262869	58032
37	159658	142.410678008547	69888
37	160971	143.41303563544	75504
37	161973	144.418970981495	56160
37	162885	145.43228959845	52416
37	164085	146.448763562886	67392
37	165040	147.4538896062	55536
37	166214	148.470856847458	68640
37	167186	149.500161609772	56160
37	168169	150.50765840264	53040
37	169259	151.508703404403	61152
37	170371	152.514850045959	61776
37	171556	153.517374749004	69888
37	172610	154.517441179613	57408
37	173725	155.523868794999	64272
37	174917	156.531845907667	64896
37	176029	157.533206217238	66144
37	177239	158.545054364221	68640
37	178284	159.546725495679	59280
37	179428	160.556529724389	64896
37	180694	161.570250577541	71136
37	181792	162.584743235277	63648
37	182956	163.585816006004	67392
37	184282	164.587912551105	71136
37	185423	165.599551154583	66768
37	186393	166.602988523335	53664
37	187438	167.609028153336	59280
37	188380	168.622967903588	56160
37	189570	169.634842151436	66144
37	190522	170.636183985871	53664
37	191594	171.654764256187	61152
37	192748	172.655283217729	66144
37	193859	173.663340612033	63024
37	194798	174.666878011033	54288
37	195985	175.678326451497	64272
37	196939	176.711003699473	56160
37	197977	177.718352490019	56160
37	199128	178.765560537815	68016
37	200200	179.766415915634	57408
37	201321	180.772508124382	64272
37	202274	181.786588226563	56784
37	203490	182.787959370693	68640
37	204408	183.800094283081	52416
37	205472	184.804976595712	58656
37	206860	185.838823712553	81120
37	207963	186.842754261094	60528
37	209261	187.850306403912	73632
37	210421	188.858339462615	66144
37	211477	189.875118541989	59904
37	212653	190.878022456008	66768
37	213689	191.890994329164	58032
37	214828	192.920416520646	64272
37	216067	193.935132140691	69264
37	217276	194.947362913225	73008
37	218393	195.964756929603	59280
37	219525	196.964901401443	64896
37	220620	197.969582177447	61776
37	221833	198.990363204214	70512
37	223000	199.99665568054	65520
37	224120	201.003644368791	61152
37	225176	202.004819169035	63648
37	226223	203.005847031644	58032
37	227436	204.007240222224	70512
37	228658	205.008191693049	68640
37	229646	206.009685061715	57408
37	230743	207.023420683761	60528
37	231757	208.02639222271	56160
37	232948	209.040455459647	69264
37	234154	210.047514304924	67392
37	235441	211.054972493126	72384
37	236653	212.058399151428	68016
37	237772	213.060931489927	65520
37	238872	214.068285917609	62400
37	239768	215.073642073796	51168
37	240963	216.086724050996	66768
37	242149	217.099627540609	64896
37	243147	218.100455410229	58656
37	244235	219.109860037273	62400
37	245491	220.111046642929	69264
37	246700	221.15725809602	73008
37	247802	222.169519938917	61776
37	248769	223.243829419505	51792
37	249928	224.293149995546	66768
37	251051	225.298336607076	63024
37	252251	226.311924615189	67392
37	253290	227.318616694512	59280
37	254389	228.323243466779	59280
37	255588	229.33036586871	71760
37	256886	230.34151281027	73632
37	257850	231.349157028176	53664
37	258933	232.37739026097	61776
37	260024	233.381945876536	64272
37	261056	234.390071256021	56160
37	262327	235.390430781919	71760
37	263519	236.391906322701	68640
37	264729	237.417606563618	72384
37	265741	238.439927501129	53664
37	266892	239.453849116599	64272
37	268038	240.486712653982	63648
37	269132	241.494498975002	66144
37	270295	242.501008869932	64272
37	271196	243.501499496105	51792
37	272447	244.503406292162	69264
37	273707	245.509045661229	71136
37	274891	246.509743863832	69888
37	275754	247.529875182594	49296
37	276834	248.536684197006	59904
37	277872	249.540795082387	59904
37	279142	250.541360265145	72384
37	280277	251.571050668732	63024
37	281324	252.582657600675	58032
37	282466	253.591022544029	66144
37	283345	254.594430842108	50544
37	284425	255.59450385542	59904
37	285632	256.603127431982	70512
37	286760	257.609523594896	63648
37	287843	258.61015022549	61776
37	288822	259.616513192187	55536
37	289984	260.627547716819	64896
37	291246	261.641310990705	69888
37	292238	262.684916793327	58656
37	293366	263.694219349778	59904
37	294498	264.704678985844	68640
37	295617	265.712398991442	58032
37	296745	266.72364172939	71136
37	297814	267.731219427119	55536
37	298979	268.736183038946	66768
37	300141	269.751713023652	68640
37	301149	270.757653318215	56160
37	302330	271.766609966645	68016
37	303676	272.773215739716	73632
37	304853	273.780756615204	66768
37	305900	274.786891959038	61776
37	307001	275.821894397037	58032
37	308219	276.824051631554	71136
37	309267	277.824819303825	60528
37	310296	278.830141821531	58656
37	311494	279.850378228434	68640
37	312738	280.858408793104	69888
37	313863	281.871683007869	61776
37	315033	282.877391131881	67392
37	316152	283.88896688818	65520
37	317460	284.88952787598	71136
37	318715	285.890338780814	70512
37	319834	286.902458143488	65520
37	321027	287.911448070752	68016
37	322052	288.939787981651	60528
37	323231	289.946867169558	65520
37	324507	290.951773129144	72384
37	325409	291.961835744627	51168
37	326536	292.984916326031	60528
37	327681	293.994553524434	68016
37	328841	295.008005582985	66144
37	329964	296.008216717202	63024
37	331125	297.032123368049	65520
37	332194	298.041315777388	59280
37	333545	299.048390337664	78000
37	334660	300.059663799537	64272
37	335680	301.083545229079	56160
37	336904	302.09681813049	67392
37	338201	303.113794534909	77376
37	339256	304.114129871252	57408
37	340390	305.116055590603	67392
37	341586	306.123573157216	66144
37	342628	307.123787264469	57408
37	343753	308.126908520079	65520
37	344853	309.144970831109	58656
37	346140	310.148963978445	76752
37	347313	311.168291035613	65520
37	348402	312.197038747551	61776
37	349555	313.214647701014	66768
37	350599	314.224018263151	59904
37	351803	315.226470238756	68640
37	352848	316.227813656465	59280
37	353959	317.230890175442	63024
37	355165	318.26413590971	67392
37	356479	319.271936603176	71136
37	357643	320.276376704574	67392
37	358676	321.277316178749	63024
37	359802	322.290279058611	64896
37	360740	323.296468647786	51168
37	361892	324.30104716276	63648
37	362870	325.324879686039	56160
37	364174	326.328180466028	73632
37	365486	327.349048991935	72384
37	366697	328.352288308127	71760
37	367761	329.358973080894	58656
37	368818	330.374522906216	59280
37	369953	331.377287121121	66768
37	370842	332.378134964878	51792
37	371829	333.387303275635	54288
37	372861	334.411928219552	59904
37	374006	335.412972168314	64272
37	374950	336.436970725693	51168
37	375957	337.448032928507	60528
37	376943	338.452320157224	53040
37	378086	339.472112968659	67392
37	379241	340.486347477268	61776
37	380478	341.492665427198	70512
37	381645	342.507952901329	69264
37	382693	343.509864128187	57408
37	384108	344.513100233327	79248
37	385142	345.513275116553	62400
37	386258	346.528051078056	59904
37	387080	347.54162360103	48672
37	388171	348.544756429409	64272
37	389103	349.545796132141	51168
37	390182	350.554205551541	59904
37	391159	351.556629035887	57408
37	392301	352.566827436571	62400
37	393435	353.571246215923	63648
37	394747	354.572467609515	76128
37	395944	355.590114023844	69264
37	397225	356.604582265976	68640
37	398410	357.607012167378	69888
37	399581	358.60707854581	63024
37	400625	359.614559994211	63648
37	401673	360.62139345374	57408
37	402773	361.632583892384	58656
37	404049	362.635308387863	75504
37	405123	363.640443380007	60528
37	406238	364.645937407953	64896
37	407449	365.647627350711	68016
37	40882	63648
37	269132	241.494498975002	66144
37	270295	242.501008869932	64272
37	271196	243.501499496105	51792
37	272447	244.503406292162	69264
37	273707	245.509045661229	71136
37	274891	246.509743863832	69888
37	275754	247.529875182594	49296
37	276834	248.536684197006	59904
37	277872	249.540795082387	59904
37	279142	250.541360265145	72384
37	280277	251.571050668732	63024
37	281324	252.582657600675	58032
37	282466	253.591022544029	66144
37	283345	254.594430842108	50544
37	284425	255.59450385542	59904
37	285632	256.603127431982	70512
37	286760	257.609523594896	63648
37	287843	258.61015022549	61776
37	288822	259.616513192187	55536
37	289984	260.627547716819	64896
37	291246	261.641310990705	69888
37	292238	262.684916793327	58656
37	293366	263.694219349778	59904
37	294498	264.704678985844	68640
37	295617	265.712398991442	58032
37	296745	266.72364172939	71136
37	297814	267.731219427119	55536
37	298979	268.736183038946	66768
37	300141	269.751713023652	68640
37	301149	270.757653318215	56160
37	302330	271.766609966645	68016
37	303676	272.773215739716	73632
37	304853	273.780756615204	66768
37	305900	274.786891959038	61776
37	307001	275.821894397037	58032
37	308219	276.824051631554	71136
37	309267	277.824819303825	60528
37	310296	278.830141821531	58656
37	311494	279.850378228434	68640
37	312738	280.858408793104	69888
37	313863	281.871683007869	61776
37	315033	282.877391131881	67392
37	316152	283.88896688818	65520
37	317460	284.88952787598	71136
37	318715	285.890338780814	70512
37	319834	286.902458143488	65520
37	321027	287.911448070752	68016
37	322052	288.939787981651	60528
37	323231	289.946867169558	65520
37	324507	290.951773129144	72384
37	325409	291.961835744627	51168
37	326536	292.984916326031	60528
37	327681	293.994553524434	68016
37	328841	295.008005582985	66144
37	329964	296.008216717202	63024
37	331125	297.032123368049	65520
37	332194	298.041315777388	59280
37	333545	299.048390337664	78000
37	334660	300.059663799537	64272
37	335680	301.083545229079	56160
37	336904	302.09681813049	67392
37	338201	303.113794534909	77376
37	339256	304.114129871252	57408
37	340390	305.116055590603	67392
37	341586	306.123573157216	66144
37	342628	307.123787264469	57408
37	343753	308.126908520079	65520
37	344853	309.144970831109	58656
37	346140	310.148963978445	76752
37	347313	311.168291035613	65520
37	348402	312.197038747551	61776
37	349555	313.214647701014	66768
37	350599	314.224018263151	59904
37	351803	315.226470238756	68640
37	352848	316.227813656465	59280
37	353959	317.230890175442	63024
37	355165	318.26413590971	67392
37	356479	319.271936603176	71136
37	357643	320.276376704574	67392
37	358676	321.277316178749	63024
37	359802	322.290279058611	64896
37	360740	323.296468647786	51168
37	361892	324.30104716276	63648
37	362870	325.324879686039	56160
37	364174	326.328180466028	73632
37	365486	327.349048991935	72384
37	366697	328.352288308127	71760
37	367761	329.358973080894	58656
37	368818	330.374522906216	59280
37	369953	331.377287121121	66768
37	370842	332.378134964878	51792
37	371829	333.387303275635	54288
37	372861	334.411928219552	59904
37	374006	335.412972168314	64272
37	374950	336.436970725693	51168
37	375957	337.448032928507	60528
37	376943	338.452320157224	53040
37	378086	339.472112968659	67392
37	379241	340.486347477268	61776
37	380478	341.492665427198	70512
37	381645	342.507952901329	69264
37	382693	343.509864128187	57408
37	384108	344.513100233327	79248
37	385142	345.513275116553	62400
37	386258	346.528051078056	59904
37	387080	347.54162360103	48672
37	388171	348.544756429409	64272
37	389103	349.545796132141	51168
37	390182	350.554205551541	59904
37	391159	351.556629035887	57408
37	392301	352.566827436571	62400
37	393435	353.571246215923	63648
37	394747	354.572467609515	76128
37	395944	355.590114023844	69264
37	397225	356.604582265976	68640
37	398410	357.607012167378	69888
37	399581	358.60707854581	63024
37	400625	359.614559994211	63648
37	401673	360.62139345374	57408
37	402773	361.632583892384	58656
37	404049	362.635308387863	75504
37	405123	363.640443380007	60528
37	406238	364.645937407953	64896
37	407449	365.647627350711	68016
37	408523	366.672893493764	59904
37	409772	367.719528998896	70512
37	410866	368.725603569989	58656
37	412125	369.734022688286	74880
37	413533	370.778372433258	80496
37	414626	371.79392115341	63024
37	415732	372.830205359149	62400
37	416912	373.838439288691	64896
37	418009	374.847684170881	64272
37	419082	375.861579325379	60528
37	420276	376.863686597224	67392
37	421285	377.871860048321	59280
37	422511	378.872786576997	66144
37	423681	379.877102638941	67392
37	424906	380.893754582293	66768
37	426101	381.894506314489	70512
37	427404	382.894622293038	74256
37	428451	383.905282428515	61776
37	429729	384.906367431042	71136
37	430800	385.911210860642	61776
37	431738	386.929503982139	51168
37	432901	387.935407666552	64272
37	434178	388.955803149786	75504
37	435285	390.017884607504	61776
37	436368	391.021697656956	61152
37	437491	392.040500670183	63648
37	438764	393.063686359402	73632
37	439836	394.081322065439	58032
37	440995	395.093511995221	70512
37	442147	396.10072666896	59904
37	443222	397.103048668012	63024
37	444504	398.105575777996	72384
37	445547	399.12703173134	60528
37	446702	400.132794531391	65520
37	447723	401.133022226014	59280
37	448681	402.147866364587	53664
37	449873	403.151566961031	64896
37	450926	404.159565659318	61152
37	452061	405.1662012771	63648
37	453138	406.167372286732	61776
37	454186	407.180575502016	61152
37	455179	408.182641609948	54288
37	456338	409.188862850501	66768
37	457557	410.194168241426	66144
37	458635	411.226751532875	61776
37	459498	412.234498724409	53040
37	460413	413.246063401894	50544
37	461498	414.252602738587	60528
37	462586	415.264907666688	62400
37	463681	416.271353425724	61776
37	464636	417.273018741356	55536
37	465526	418.287083083068	47424
37	466797	419.302552318272	75504
37	467927	420.316676706575	58656
37	468978	421.361295497097	63024
37	470140	422.361318169542	64896
37	471243	423.374579247615	64272
37	472261	424.378906637837	57408
37	473407	425.383506745387	63648
37	474587	426.393335817291	68640
37	475702	427.40062756099	60528
37	476735	428.405802679143	63024
37	478019	429.421720245623	71136
37	479021	430.423949023892	56160
37	480144	431.432666766593	63024
37	481357	432.438530094291	66768
37	482625	433.447114818791	73632
37	483702	434.453699420405	61776
37	484641	435.454851378761	54288
37	485609	436.471689016276	58032
37	486762	437.474485020259	59904
37	487861	438.480883617514	63024
37	488759	439.484063095591	49920
37	490029	440.500905898665	72384
37	491341	441.513227294496	76128
37	492462	442.519346813826	64272
37	493664	443.523386033159	66144
37	494791	444.554688580095	64272
37	495906	445.566789842374	64272
37	497227	446.585104262279	74256
37	498407	447.60392806466	68640
37	499387	448.615732971028	54912
37	500668	449.618278444574	69264
37	501885	450.629434784136	75504
37	502903	451.63618068288	57408
37	503901	452.637584818228	54912
37	505051	453.653838001028	61152
37	506360	454.669607579193	74256
37	507486	455.675248762168	68640
37	508458	456.683630508354	52416
37	509646	457.693139846553	67392
37	510764	458.717417403288	66144
37	511838	459.721135099204	59904
37	513112	460.727888585163	69888
37	514117	461.767582103992	61776
37	515119	462.773604073366	52416
37	516165	463.780856651476	62400
37	517143	464.787330443227	52416
37	518182	465.791262309413	59280
37	519278	466.791649123822	61152
37	520415	467.795281776036	69264
37	521611	468.799104538741	62400
37	522844	469.804887606594	69264
37	523993	470.807012363444	69264
37	525074	471.813265737209	59280
37	526283	472.830810891599	69264
37	527267	473.84429751855	56160
37	528323	474.862341480264	59904
37	529384	475.872159004354	60528
37	530504	476.876702140895	64896
37	531699	477.881365465666	63024
37	532866	478.885669464455	69888
37	534107	479.904847213219	68016
37	535244	480.912723986831	65520
37	536485	481.920106262187	71760
37	537524	482.922711767702	57408
37	538578	483.95112416011	63024
37	539422	484.97063021447	46176
37	540385	486.025943061604	54288
37	541651	487.038909708963	71136
37	542801	488.040446485577	64896
37	543928	489.048630942654	64272
37	544965	490.063724599471	60528
37	546126	491.065890312154	61776
37	547233	492.0802968523	366.672893493764	59904
37	409772	367.719528998896	70512
37	410866	368.725603569989	58656
37	412125	369.734022688286	74880
37	413533	370.778372433258	80496
37	414626	371.79392115341	63024
37	415732	372.830205359149	62400
37	416912	373.838439288691	64896
37	418009	374.847684170881	64272
37	419082	375.861579325379	60528
37	420276	376.863686597224	67392
37	421285	377.871860048321	59280
37	422511	378.872786576997	66144
37	423681	379.877102638941	67392
37	424906	380.893754582293	66768
37	426101	381.894506314489	70512
37	427404	382.894622293038	74256
37	428451	383.905282428515	61776
37	429729	384.906367431042	71136
37	430800	385.911210860642	61776
37	431738	386.929503982139	51168
37	432901	387.935407666552	64272
37	434178	388.955803149786	75504
37	435285	390.017884607504	61776
37	436368	391.021697656956	61152
37	437491	392.040500670183	63648
37	438764	393.063686359402	73632
37	439836	394.081322065439	58032
37	440995	395.093511995221	70512
37	442147	396.10072666896	59904
37	443222	397.103048668012	63024
37	444504	398.105575777996	72384
37	445547	399.12703173134	60528
37	446702	400.132794531391	65520
37	447723	401.133022226014	59280
37	448681	402.147866364587	53664
37	449873	403.151566961031	64896
37	450926	404.159565659318	61152
37	452061	405.1662012771	63648
37	453138	406.167372286732	61776
37	454186	407.180575502016	61152
37	455179	408.182641609948	54288
37	456338	409.188862850501	66768
37	457557	410.194168241426	66144
37	458635	411.226751532875	61776
37	459498	412.234498724409	53040
37	460413	413.246063401894	50544
37	461498	414.252602738587	60528
37	462586	415.264907666688	62400
37	463681	416.271353425724	61776
37	464636	417.273018741356	55536
37	465526	418.287083083068	47424
37	466797	419.302552318272	75504
37	467927	420.316676706575	58656
37	468978	421.361295497097	63024
37	470140	422.361318169542	64896
37	471243	423.374579247615	64272
37	472261	424.378906637837	57408
37	473407	425.383506745387	63648
37	474587	426.393335817291	68640
37	475702	427.40062756099	60528
37	476735	428.405802679143	63024
37	478019	429.421720245623	71136
37	479021	430.423949023892	56160
37	480144	431.432666766593	63024
37	481357	432.438530094291	66768
37	482625	433.447114818791	73632
37	483702	434.453699420405	61776
37	484641	435.454851378761	54288
37	485609	436.471689016276	58032
37	486762	437.474485020259	59904
37	487861	438.480883617514	63024
37	488759	439.484063095591	49920
37	490029	440.500905898665	72384
37	491341	441.513227294496	76128
37	492462	442.519346813826	64272
37	493664	443.523386033159	66144
37	494791	444.554688580095	64272
37	495906	445.566789842374	64272
37	497227	446.585104262279	74256
37	498407	447.60392806466	68640
37	499387	448.615732971028	54912
37	500668	449.618278444574	69264
37	501885	450.629434784136	75504
37	502903	451.63618068288	57408
37	503901	452.637584818228	54912
37	505051	453.653838001028	61152
37	506360	454.669607579193	74256
37	507486	455.675248762168	68640
37	508458	456.683630508354	52416
37	509646	457.693139846553	67392
37	510764	458.717417403288	66144
37	511838	459.721135099204	59904
37	513112	460.727888585163	69888
37	514117	461.767582103992	61776
37	515119	462.773604073366	52416
37	516165	463.780856651476	62400
37	517143	464.787330443227	52416
37	518182	465.791262309413	59280
37	519278	466.791649123822	61152
37	520415	467.795281776036	69264
37	521611	468.799104538741	62400
37	522844	469.804887606594	69264
37	523993	470.807012363444	69264
37	525074	471.813265737209	59280
37	526283	472.830810891599	69264
37	527267	473.84429751855	56160
37	528323	474.862341480264	59904
37	529384	475.872159004354	60528
37	530504	476.876702140895	64896
37	531699	477.881365465666	63024
37	532866	478.885669464455	69888
37	534107	479.904847213219	68016
37	535244	480.912723986831	65520
37	536485	481.920106262187	71760
37	537524	482.922711767702	57408
37	538578	483.95112416011	63024
37	539422	484.97063021447	46176
37	540385	486.025943061604	54288
37	541651	487.038909708963	71136
37	542801	488.040446485577	64896
37	543928	489.048630942654	64272
37	544965	490.063724599471	60528
37	546126	491.065890312154	61776
37	547233	492.080296805305	64896
37	548531	493.086926443345	74256
37	549719	494.087370565125	67392
37	550779	495.087741376463	61152
37	551956	496.103858441645	66768
37	552968	497.108561231013	57408
37	553869	498.120456240249	51792
37	554918	499.139338763527	56784
37	556045	500.140125037029	64272
37	557096	501.153084566402	59280
37	558211	502.182850888036	64272
37	559188	503.200453609897	53040
37	560399	504.202274782641	71136
37	561735	505.217138658355	73008
37	562904	506.22663880546	68016
37	564082	507.234013466427	66144
37	565311	508.24024852186	68016
37	566563	509.244373134537	76128
37	567627	510.250620484304	58656
37	568695	511.254698926016	59904
37	569736	512.258189487428	58032
37	570780	513.27678505198	63648
37	571887	514.282476479225	61776
37	573122	515.298398832717	64272
37	574436	516.304835718899	78624
37	575507	517.305118293094	61776
37	576503	518.311507207849	56160
37	577503	519.31901286152	57408
37	578762	520.329325068984	68016
37	579843	521.335387130425	63024
37	581022	522.336231625032	69264
37	582035	523.336544316306	53040
37	583351	524.337032957718	77376
37	584387	525.344550909509	57408
37	585690	526.345057508334	74256
37	586841	527.348374458705	67392
37	588185	528.365683670998	76128
37	589325	529.366715007459	63648
37	590463	530.375707519299	64896
37	591656	531.380850945806	64272
37	592717	532.380883771068	64272
37	593843	533.38203708	61152
37	594847	534.43149711082	58656
37	595864	535.437415790765	58032
37	597001	536.440230986855	61776
37	598242	537.441789091317	71760
37	599158	538.446752517579	53664
37	600196	539.448201909881	55536
37	601257	540.465146789822	61152
37	602319	541.480098504061	59904
37	603321	542.497855938003	59904
37	604448	543.498343146687	64272
37	605247	544.500308395571	44304
37	606595	545.522844173461	76128
37	607577	546.550008434287	53664
37	608620	547.555061669251	60528
37	609774	548.564135442008	62400
37	610797	549.567858152427	61776
37	612090	550.584512678344	73008
37	613220	551.611735435163	62400
37	614398	552.612421355241	66144
37	615383	553.635238747368	59280
37	616457	554.655747813159	59904
37	617425	555.659112259755	54912
37	618475	556.671645563739	59904
37	619546	557.679517426352	61152
37	620600	558.682256352939	58032
37	621737	559.696514694346	65520
37	622789	560.713817311679	58656
37	623957	561.716889050516	68016
37	625071	562.73766387912	61776
37	626122	563.740290460149	59280
37	627412	564.755164981456	71136
37	628409	565.765452412208	59280
37	629506	566.768028474804	64272
37	630535	567.800367689215	58032
37	631459	568.822074883401	52416
37	632496	569.823216314755	56784
37	633463	570.829152494186	55536
37	634529	571.840898496384	61152
37	635603	572.859391428684	59904
37	636796	573.861627440309	68016
37	638068	574.86383936166	71136
37	639097	575.870626919023	58032
37	640176	576.872297761345	60528
37	641360	577.875091555206	69888
37	642462	578.880607722631	57408
37	643704	579.880627358481	71136
37	644684	580.895556496162	58656
37	645926	581.925089702398	71136
37	646957	582.940857470665	56160
37	648052	583.94646741895	66144
37	649121	584.964366246936	59280
37	650244	585.967202786084	63024
37	651409	586.977783333236	64896
37	652513	587.994077919783	61776
37	653563	588.995686432836	63648
37	654696	589.999140036537	60528
37	655630	591.005644381041	53664
37	656633	592.015851934432	59280
37	657752	593.031976711454	61776
37	658884	594.037342798844	64896
37	659866	595.075169269878	53664
37	661062	596.077600596309	66144
37	662265	597.091005067483	72384
37	663383	598.102943529688	63024
37	664561	599.109172630616	66144
37	665775	600.126005666525	69888
37	666938	601.134549794256	64272
37	667993	602.162917136524	60528
37	669243	603.182004531283	69888
37	670242	604.18269779773	58032
37	671322	605.195672627253	59280
37	672355	606.200791275374	63648
37	673376	607.204782142164	51792
37	674504	608.213454656157	67392
37	675526	609.219977545554	58656
37	676629	610.232692216703	64272
37	677628	611.235281722583	54288
37	678692	612.23680328994	58656
37	679855	613.23829528476	68016
37	680806	614.250168683845	54288
37	682046	615.251430179317	68640
37	683141	616.255788745677	61776
37	684228	617.266222161714	63024
37	685305305	64896
37	548531	493.086926443345	74256
37	549719	494.087370565125	67392
37	550779	495.087741376463	61152
37	551956	496.103858441645	66768
37	552968	497.108561231013	57408
37	553869	498.120456240249	51792
37	554918	499.139338763527	56784
37	556045	500.140125037029	64272
37	557096	501.153084566402	59280
37	558211	502.182850888036	64272
37	559188	503.200453609897	53040
37	560399	504.202274782641	71136
37	561735	505.217138658355	73008
37	562904	506.22663880546	68016
37	564082	507.234013466427	66144
37	565311	508.24024852186	68016
37	566563	509.244373134537	76128
37	567627	510.250620484304	58656
37	568695	511.254698926016	59904
37	569736	512.258189487428	58032
37	570780	513.27678505198	63648
37	571887	514.282476479225	61776
37	573122	515.298398832717	64272
37	574436	516.304835718899	78624
37	575507	517.305118293094	61776
37	576503	518.311507207849	56160
37	577503	519.31901286152	57408
37	578762	520.329325068984	68016
37	579843	521.335387130425	63024
37	581022	522.336231625032	69264
37	582035	523.336544316306	53040
37	583351	524.337032957718	77376
37	584387	525.344550909509	57408
37	585690	526.345057508334	74256
37	586841	527.348374458705	67392
37	588185	528.365683670998	76128
37	589325	529.366715007459	63648
37	590463	530.375707519299	64896
37	591656	531.380850945806	64272
37	592717	532.380883771068	64272